Program Version,EnergyPlus, Version 8.3.0-6d97d074ea, YMD=2017.09.25 02:56
1,5,Environment Title[],Latitude[deg],Longitude[deg],Time Zone[],Elevation[m]
2,6,Day of Simulation[],Month[],Day of Month[],DST Indicator[1=yes 0=no],Hour[],StartMinute[],EndMinute[],DayType
3,3,Cumulative Day of Simulation[],Month[],Day of Month[],DST Indicator[1=yes 0=no],DayType  ! When Daily Report Variables Requested
4,2,Cumulative Days of Simulation[],Month[]  ! When Monthly Report Variables Requested
5,1,Cumulative Days of Simulation[] ! When Run Period Report Variables Requested
1074,1,EMS,IW North Zone Average Temperature [C] !TimeStep
1075,1,EMS,IW North Zone Average Temperature [C] !Hourly
1125,1,EMS,IW Calculated Heating Demand [KW] !TimeStep
1126,1,EMS,IW Calculated Heating Energy [KWH] !Hourly
2708,1,TEMPHWLOOP SUPPLY SIDE OUTLET,System Node Temperature [C] !TimeStep
2710,1,TEMPHWLOOP DEMAND SIDE INLET BRANCH PIPE OUTLET,System Node Temperature [C] !TimeStep
End of Data Dictionary
1,WHOLEYEAR,  40.35, -79.92,  -5.00, 380.00
2,1, 1, 1, 0, 1, 0.00, 5.00,Sunday
1074,20.2919374258266
1125,13.7858805385928
2708,36.65785
2710,36.0902422711509
2,1, 1, 1, 0, 1, 5.00,10.00,Sunday
1074,20.2773985440606
1125,13.8839583594912
2708,36.38173333
2710,36.3561609235402
2,1, 1, 1, 0, 1,10.00,15.00,Sunday
1074,20.279568346532
1125,13.899317120305
2708,36.91682778
2710,36.5790210000696
2,1, 1, 1, 0, 1,15.00,20.00,Sunday
1074,20.286104049133
1125,14.5663657289421
2708,37.48085
2710,37.0178001701668
2,1, 1, 1, 0, 1,20.00,25.00,Sunday
1074,20.3018463677465
1125,15.1601991576183
2708,38.49283833
2710,37.7112510582116
2,1, 1, 1, 0, 1,25.00,30.00,Sunday
1074,20.31027381831
1125,14.3854145686197
2708,36.92691667
2710,37.6207465045011
2,1, 1, 1, 0, 1,30.00,35.00,Sunday
1074,20.3166910150004
1125,13.1824663657215
2708,36.56209444
2710,37.0251916781208
2,1, 1, 1, 0, 1,35.00,40.00,Sunday
1074,20.3215609327107
1125,13.1411817131781
2708,36.88230556
2710,36.8447985558841
2,1, 1, 1, 0, 1,40.00,45.00,Sunday
1074,20.323243410363
1125,13.7062451625575
2708,37.38586667
2710,37.0633410108664
2,1, 1, 1, 0, 1,45.00,50.00,Sunday
1074,20.3241702636027
1125,14.5466180235123
2708,37.88405944
2710,37.4667442865333
2,1, 1, 1, 0, 1,50.00,55.00,Sunday
1074,20.335236116055
1125,14.8989460162943
2708,38.39494056
2710,37.9372017371988
2,1, 1, 1, 0, 1,55.00,60.00,Sunday
1074,20.3388479081719
1125,14.2470392987867
2708,37.24123639
2710,37.793065569774
2,1, 1, 1, 0, 1, 0.00,60.00,Sunday
1075,20.3089065164594
1126,14.1169693378016
2,1, 1, 1, 0, 2, 0.00, 5.00,Sunday
1074,20.3403989231679
1125,13.3654126182946
2708,36.88265556
2710,37.2930451739141
2,1, 1, 1, 0, 2, 5.00,10.00,Sunday
1074,20.340246093411
1125,13.0897519231662
2708,36.72095556
2710,36.9616148865911
2,1, 1, 1, 0, 2,10.00,15.00,Sunday
1074,20.3370435647413
1125,13.5927815796363
2708,37.40917778
2710,37.0688441578576
2,1, 1, 1, 0, 2,15.00,20.00,Sunday
1074,20.3321929809275
1125,14.4041593327203
2708,37.96583833
2710,37.5064452435306
2,1, 1, 1, 0, 2,20.00,25.00,Sunday
1074,20.3277449966494
1125,15.0636092590324
2708,38.52876
2710,38.0245424619184
2,1, 1, 1, 0, 2,25.00,30.00,Sunday
1074,20.3246608653261
1125,14.6755443558736
2708,37.23988333
2710,37.8588282828812
2,1, 1, 1, 0, 2,30.00,35.00,Sunday
1074,20.33200800351
1125,13.5953222353237
2708,36.95423889
2710,37.3428812871549
2,1, 1, 1, 0, 2,35.00,40.00,Sunday
1074,20.3281286868372
1125,13.2331702339427
2708,36.71838333
2710,36.997153247598
2,1, 1, 1, 0, 2,40.00,45.00,Sunday
1074,20.3193064028854
1125,13.6718106505337
2708,37.40301344
2710,37.0780043518292
2,1, 1, 1, 0, 2,45.00,50.00,Sunday
1074,20.3096562588393
1125,14.4367893577689
2708,37.89360889
2710,37.4801103114808
2,1, 1, 1, 0, 2,50.00,55.00,Sunday
1074,20.2978062337256
1125,15.1347779710997
2708,38.54309056
2710,38.0014458704299
2,1, 1, 1, 0, 2,55.00,60.00,Sunday
1074,20.2868884166452
1125,14.5976901669044
2708,37.244
2710,37.8563443267254
2,1, 1, 1, 0, 2, 0.00,60.00,Sunday
1075,20.3230067855555
1126,14.0717349736914
2,1, 1, 1, 0, 3, 0.00, 5.00,Sunday
1074,20.2790928271172
1125,13.6402949638364
2708,36.92142489
2710,37.3305026942315
2,1, 1, 1, 0, 3, 5.00,10.00,Sunday
1074,20.2686665373287
1125,13.6229872776502
2708,37.10815556
2710,37.134128795328
2,1, 1, 1, 0, 3,10.00,15.00,Sunday
1074,20.254432471453
1125,14.1844231991611
2708,37.66650306
2710,37.3321386346501
2,1, 1, 1, 0, 3,15.00,20.00,Sunday
1074,20.239321440499
1125,14.8642452372753
2708,38.15204222
2710,37.7384328561216
2,1, 1, 1, 0, 3,20.00,25.00,Sunday
1074,20.2220617198541
1125,15.7644055720532
2708,39.17105556
2710,38.4021640434764
2,1, 1, 1, 0, 3,25.00,30.00,Sunday
1074,20.2070042582653
1125,15.148805430215
2708,37.61526111
2710,38.307233462695
2,1, 1, 1, 0, 3,30.00,35.00,Sunday
1074,20.1928891493987
1125,13.9889714435853
2708,37.20576394
2710,37.6956905658054
2,1, 1, 1, 0, 3,35.00,40.00,Sunday
1074,20.1752969658479
1125,13.5041946655104
2708,36.8211
2710,37.2262229676619
2,1, 1, 1, 0, 3,40.00,45.00,Sunday
1074,20.1564808251792
1125,13.9513998338208
2708,37.57690856
2710,37.251619867907
2,1, 1, 1, 0, 3,45.00,50.00,Sunday
1074,20.1393352773421
1125,14.973827680404
2708,38.43417722
2710,37.7951312557605
2,1, 1, 1, 0, 3,50.00,55.00,Sunday
1074,20.1283474787168
1125,15.8411725967073
2708,39.12815944
2710,38.4815303411418
2,1, 1, 1, 0, 3,55.00,60.00,Sunday
1074,20.1205401698642
1125,15.2598468809482
2708,37.93649056
2710,38.4466552590478
2,1, 1, 1, 0, 3, 0.00,60.00,Sunday
1075,20.1986224267388
1126,14.5620478984306
2,1, 1, 1, 0, 4, 0.00, 5.00,Sunday
1074,20.1140727107415
1125,14.2012815273442
2708,37.42814444
2710,37.9162791260058
2,1, 1, 1, 0, 4, 5.00,10.00,Sunday
1074,20.1069009545304
1125,13.5751932912176
2708,36.91042222
2710,37.3967401432917
2,1, 1, 1, 0, 4,10.00,15.00,Sunday
1074,20.0934698521285
1125,14.3097572030599
2708,38.27357
2710,37.6027988023065
2,1, 1, 1, 0, 4,15.00,20.00,Sunday
1074,20.0762915955065
1125,15.5835479888545
2708,38.99203389
2710,38.3194337345088
2,1, 1, 1, 0, 4,20.00,25.00,Sunday
1074,20.0607850666109
1125,15.0193976956957
2708,37.55067778
2710,38.2054260893057
2,1, 1, 1, 0, 4,25.00,30.00,Sunday
1074,20.0467463407862
1125,14.4550197692767
2708,37.90426889
2710,37.9121954465055
2,1, 1, 1, 0, 4,30.00,35.00,Sunday
1074,20.032055748159
1125,14.3394625931953
2708,37.49562778
2710,37.74961110118
2,1, 1, 1, 0, 4,35.00,40.00,Sunday
1074,20.0159117475683
1125,14.2922189356218
2708,37.52883061
2710,37.5958249783589
2,1, 1, 1, 0, 4,40.00,45.00,Sunday
1074,19.9992098738242
1125,14.6093574658217
2708,37.91426778
2710,37.7003358564952
2,1, 1, 1, 0, 4,45.00,50.00,Sunday
1074,19.9828477508423
1125,15.1917949940289
2708,38.43442722
2710,38.0409786768786
2,1, 1, 1, 0, 4,50.00,55.00,Sunday
1074,19.9671824940107
1125,15.7148309913396
2708,38.77781333
2710,38.4312735740545
2,1, 1, 1, 0, 4,55.00,60.00,Sunday
1074,19.9574493397506
1125,15.3368909731274
2708,38.06388889
2710,38.3835865211028
2,1, 1, 1, 0, 4, 0.00,60.00,Sunday
1075,20.0377436228716
1126,14.7190627857153
2,1, 1, 1, 0, 5, 0.00, 5.00,Sunday
1074,19.9485850421689
1125,14.6555771602749
2708,37.66227778
2710,38.0192358606893
2,1, 1, 1, 0, 5, 5.00,10.00,Sunday
1074,19.9404121817626
1125,14.0866238558755
2708,37.11223889
2710,37.573281980612
2,1, 1, 1, 0, 5,10.00,15.00,Sunday
1074,19.9264221438643
1125,14.267187227762
2708,37.66535
2710,37.4839361377896
2,1, 1, 1, 0, 5,15.00,20.00,Sunday
1074,19.9084146343576
1125,15.0540133906142
2708,38.29714889
2710,37.8462493947031
2,1, 1, 1, 0, 5,20.00,25.00,Sunday
1074,19.8906526639734
1125,16.1642936808091
2708,39.42441722
2710,38.5761309523694
2,1, 1, 1, 0, 5,25.00,30.00,Sunday
1074,19.8755664331076
1125,15.6775950004272
2708,37.82614389
2710,38.5169106252438
2,1, 1, 1, 0, 5,30.00,35.00,Sunday
1074,19.8675031839969
1125,14.5173394123753
2708,37.39491356
2710,37.8977880280116
2,1, 1, 1, 0, 5,35.00,40.00,Sunday
1074,19.8582539683122
1125,14.2038490108321
2708,37.32762222
2710,37.5420628448427
2,1, 1, 1, 0, 5,40.00,45.00,Sunday
1074,19.8392251465887
1125,14.6846751934906
2708,37.93432444
2710,37.635090599203
2,1, 1, 1, 0, 5,45.00,50.00,Sunday
1074,19.8172336641255
1125,15.2347601960445
2708,38.12135889
2710,37.9033772095081
2,1, 1, 1, 0, 5,50.00,55.00,Sunday
1074,19.7963383596604
1125,16.1680428487087
2708,39.40407667
2710,38.5403709505664
2,1, 1, 1, 0, 5,55.00,60.00,Sunday
1074,19.7790980894516
1125,15.8104740998252
2708,37.97747722
2710,38.5573826074281
2,1, 1, 1, 0, 5, 0.00,60.00,Sunday
1075,19.8706421259475
1126,15.0437025897533
2,1, 1, 1, 0, 6, 0.00, 5.00,Sunday
1074,19.7631908923178
1125,14.8594243340887
2708,37.73312222
2710,38.0829419501794
2,1, 1, 1, 0, 6, 5.00,10.00,Sunday
1074,19.7470697262124
1125,14.401035767019
2708,37.25459444
2710,37.6692118177296
2,1, 1, 1, 0, 6,10.00,15.00,Sunday
1074,19.7286320578667
1125,14.8332651722382
2708,38.08801444
2710,37.7182734391296
2,1, 1, 1, 0, 6,15.00,20.00,Sunday
1074,19.7098772833819
1125,15.5976534553437
2708,38.45281389
2710,38.1012670576697
2,1, 1, 1, 0, 6,20.00,25.00,Sunday
1074,19.6913294719987
1125,16.5745885778028
2708,39.65068389
2710,38.7931803695234
2,1, 1, 1, 0, 6,25.00,30.00,Sunday
1074,19.6759846061415
1125,16.0993165501292
2708,38.126725
2710,38.7686269164707
2,1, 1, 1, 0, 6,30.00,35.00,Sunday
1074,19.6632906408138
1125,15.155883290192
2708,37.914645
2710,38.265956598676
2,1, 1, 1, 0, 6,35.00,40.00,Sunday
1074,19.6556697976298
1125,14.7283907654216
2708,37.51236667
2710,37.8806150614509
2,1, 1, 1, 0, 6,40.00,45.00,Sunday
1074,19.6403822536348
1125,15.1454412752682
2708,38.27029778
2710,37.9310135006339
2,1, 1, 1, 0, 6,45.00,50.00,Sunday
1074,19.6220967812992
1125,15.8329947250586
2708,38.61201389
2710,38.2851417797661
2,1, 1, 1, 0, 6,50.00,55.00,Sunday
1074,19.6052817651005
1125,16.7944777156638
2708,39.68834333
2710,38.9140616298399
2,1, 1, 1, 0, 6,55.00,60.00,Sunday
1074,19.5977555244431
1125,16.3345625965088
2708,38.26391444
2710,38.8732608608387
2,1, 1, 1, 0, 6, 0.00,60.00,Sunday
1075,19.6750467334033
1126,15.5297528520612
2,1, 1, 1, 0, 7, 0.00, 5.00,Sunday
1074,19.5927366538338
1125,15.3217548576622
2708,37.92726722
2710,38.3439656023688
2,1, 1, 1, 0, 7, 5.00,10.00,Sunday
1074,19.5851335688761
1125,14.9950255973291
2708,37.69695283
2710,37.9819713005028
2,1, 1, 1, 0, 7,10.00,15.00,Sunday
1074,19.5728235196634
1125,15.3819096064582
2708,38.35087222
2710,38.04689626005
2,1, 1, 1, 0, 7,15.00,20.00,Sunday
1074,19.5527487353844
1125,15.965230050111
2708,38.59315667
2710,38.3395721869229
2,1, 1, 1, 0, 7,20.00,25.00,Sunday
1074,19.5321008964975
1125,16.7653750425741
2708,39.55098056
2710,38.8747849019465
2,1, 1, 1, 0, 7,25.00,30.00,Sunday
1074,19.5134350355806
1125,16.8528693327971
2708,38.96245333
2710,39.0915974290459
2,1, 1, 1, 0, 7,30.00,35.00,Sunday
1074,19.5037734273597
1125,15.8810525875615
2708,38.10767278
2710,38.6776850108429
2,1, 1, 1, 0, 7,35.00,40.00,Sunday
1074,19.4892051844483
1125,15.1170675402006
2708,37.57735
2710,38.0995939181186
2,1, 1, 1, 0, 7,40.00,45.00,Sunday
1074,19.4751878308892
1125,15.5134919526992
2708,38.50966667
2710,38.1161585569675
2,1, 1, 1, 0, 7,45.00,50.00,Sunday
1074,19.4545568835989
1125,16.3537289963853
2708,38.88774444
2710,38.5198538136205
2,1, 1, 1, 0, 7,50.00,55.00,Sunday
1074,19.4327282895939
1125,17.4343018129832
2708,40.065545
2710,39.2147565129944
2,1, 1, 1, 0, 7,55.00,60.00,Sunday
1074,19.4198675203564
1125,16.9516120926742
2708,38.60093
2710,39.208654984235
2,1, 1, 1, 0, 7, 0.00,60.00,Sunday
1075,19.5103581288402
1126,16.044451622453
2,1, 1, 1, 0, 8, 0.00, 5.00,Sunday
1074,19.4035557437959
1125,15.9863707590965
2708,38.36558
2710,38.7194371730671
2,1, 1, 1, 0, 8, 5.00,10.00,Sunday
1074,19.3868960972191
1125,15.4380605886781
2708,37.68825
2710,38.2264915819416
2,1, 1, 1, 0, 8,10.00,15.00,Sunday
1074,19.371917933335
1125,16.1382338073791
2708,39.17082056
2710,38.4444912941604
2,1, 1, 1, 0, 8,15.00,20.00,Sunday
1074,19.3510075599816
1125,17.2214567332899
2708,39.55202333
2710,39.0676696190805
2,1, 1, 1, 0, 8,20.00,25.00,Sunday
1074,19.3310892901113
1125,16.6928051421093
2708,38.36366444
2710,38.9276416616904
2,1, 1, 1, 0, 8,25.00,30.00,Sunday
1074,19.3197024839336
1125,16.2195215625662
2708,38.66430056
2710,38.6735475870192
2,1, 1, 1, 0, 8,30.00,35.00,Sunday
1074,19.3093556331385
1125,16.1005826358603
2708,38.35119056
2710,38.5468904666733
2,1, 1, 1, 0, 8,35.00,40.00,Sunday
1074,19.2912449999506
1125,15.8718749991901
2708,38.13631667
2710,38.3357839968377
2,1, 1, 1, 0, 8,40.00,45.00,Sunday
1074,19.2699602091385
1125,16.3368809483735
2708,38.84012833
2710,38.4760330671643
2,1, 1, 1, 0, 8,45.00,50.00,Sunday
1074,19.254020939117
1125,16.9220085030185
2708,39.17311778
2710,38.8430725135813
2,1, 1, 1, 0, 8,50.00,55.00,Sunday
1074,19.2341202000468
1125,17.6728262218196
2708,40.06912222
2710,39.4046223427321
2,1, 1, 1, 0, 8,55.00,60.00,Sunday
1074,19.2177572117112
1125,16.9630890893268
2708,38.38915056
2710,39.1934007715395
2,1, 1, 1, 0, 8, 0.00,60.00,Sunday
1075,19.3117190251233
1126,16.463642582559
2,1, 1, 1, 0, 9, 0.00, 5.00,Sunday
1074,19.2081679840133
1125,34.7693599000001
2708,54.47570778
2710,44.8615801279731
2,1, 1, 1, 0, 9, 5.00,10.00,Sunday
1074,19.2216289190933
1125,46.4724016810476
2708,55.10226778
2710,51.4082852755522
2,1, 1, 1, 0, 9,10.00,15.00,Sunday
1074,19.290796745845
1125,47.9501103439445
2708,56.71374
2710,54.4516188514873
2,1, 1, 1, 0, 9,15.00,20.00,Sunday
1074,19.3951292155916
1125,50.1716094064737
2708,58.24670556
2710,56.5256351965863
2,1, 1, 1, 0, 9,20.00,25.00,Sunday
1074,19.5081035164941
1125,50.645338265685
2708,60.06938889
2710,58.356388544728
2,1, 1, 1, 0, 9,25.00,30.00,Sunday
1074,19.7235906605129
1125,51.6801269115568
2708,61.57202833
2710,60.0585861619941
2,1, 1, 1, 0, 9,30.00,35.00,Sunday
1074,19.9410239678336
1125,52.0779454710528
2708,62.47737444
2710,61.3998602574731
2,1, 1, 1, 0, 9,35.00,40.00,Sunday
1074,20.1584033336086
1125,51.552473511683
2708,63.63202389
2710,62.5512503637318
2,1, 1, 1, 0, 9,40.00,45.00,Sunday
1074,20.3387868357123
1125,52.9037451876176
2708,64.88148167
2710,63.7412929742991
2,1, 1, 1, 0, 9,45.00,50.00,Sunday
1074,20.484183698848
1125,53.8602804191769
2708,65.70187056
2710,64.8050494150045
2,1, 1, 1, 0, 9,50.00,55.00,Sunday
1074,20.6273235631674
1125,54.1885317117605
2708,66.29742944
2710,65.6226022004213
2,1, 1, 1, 0, 9,55.00,60.00,Sunday
1074,20.7786795370239
1125,53.4390437491276
2708,66.12926889
2710,66.0004190336904
2,1, 1, 1, 0, 9, 0.00,60.00,Sunday
1075,19.8896514981453
1126,49.9759138799271
2,1, 1, 1, 0,10, 0.00, 5.00,Sunday
1074,20.940454389212
1125,50.0440534740545
2708,63.45392889
2710,65.054533106371
2,1, 1, 1, 0,10, 5.00,10.00,Sunday
1074,21.0942561689534
1125,46.0911779957937
2708,61.65125556
2710,63.3104937595236
2,1, 1, 1, 0,10,10.00,15.00,Sunday
1074,21.2098999251344
1125,45.0273122771949
2708,61.79205556
2710,62.276516969544
2,1, 1, 1, 0,10,15.00,20.00,Sunday
1074,21.2898594338665
1125,45.8308965124469
2708,62.05285833
2710,62.0592314564227
2,1, 1, 1, 0,10,20.00,25.00,Sunday
1074,21.353320513537
1125,46.9988268429627
2708,62.60802389
2710,62.2688704472906
2,1, 1, 1, 0,10,25.00,30.00,Sunday
1074,21.4116119653819
1125,47.9535347092656
2708,62.94589556
2710,62.6214322540241
2,1, 1, 1, 0,10,30.00,35.00,Sunday
1074,21.4707531740829
1125,47.9435172315805
2708,62.56102667
2710,62.6860002733556
2,1, 1, 1, 0,10,35.00,40.00,Sunday
1074,21.5265675168196
1125,47.6682419331079
2708,62.62498667
2710,62.628670630298
2,1, 1, 1, 0,10,40.00,45.00,Sunday
1074,21.5794976183997
1125,47.3296296448131
2708,62.33688333
2710,62.5152931956345
2,1, 1, 1, 0,10,45.00,50.00,Sunday
1074,21.6314839547602
1125,43.2161116755229
2708,57.88719167
2710,60.6845109366481
2,1, 1, 1, 0,10,50.00,55.00,Sunday
1074,21.6727430600584
1125,35.7211732924096
2708,55.0219945473983
2710,57.7510310360664
2,1, 1, 1, 0,10,55.00,60.00,Sunday
1074,21.6938337440591
1125,32.1237399506755
2708,53.2223111010612
2710,55.270426605055
2,1, 1, 1, 0,10, 0.00,60.00,Sunday
1075,21.4061901220221
1126,44.6623512949857
2,1, 1, 1, 0,11, 0.00, 5.00,Sunday
1074,21.6951723058145
1125,29.867470833203
2708,51.359024849411
2710,53.2115207403299
2,1, 1, 1, 0,11, 5.00,10.00,Sunday
1074,21.6716589655168
1125,27.6339697653479
2708,49.6098164133715
2710,51.3247965402281
2,1, 1, 1, 0,11,10.00,15.00,Sunday
1074,21.6605820770426
1125,25.3096667512291
2708,48.0350204459237
2710,49.6573113487725
2,1, 1, 1, 0,11,15.00,20.00,Sunday
1074,21.6630203553035
1125,22.8691286431725
2708,46.5074545063006
2710,47.9977979127002
2,1, 1, 1, 0,11,20.00,25.00,Sunday
1074,21.6478694917352
1125,20.7324130753684
2708,45.1347966406296
2710,46.4862781281229
2,1, 1, 1, 0,11,25.00,30.00,Sunday
1074,21.6204089234619
1125,18.8943682681922
2708,43.8641483120504
2710,45.0601300595927
2,1, 1, 1, 0,11,30.00,35.00,Sunday
1074,21.5959354926598
1125,17.2983316140375
2708,42.7806858577447
2710,43.8597888373842
2,1, 1, 1, 0,11,35.00,40.00,Sunday
1074,21.5766164818986
1125,15.9688200039139
2708,41.7744631807854
2710,42.7656353443451
2,1, 1, 1, 0,11,40.00,45.00,Sunday
1074,21.5565697152362
1125,14.7787918992049
2708,40.8415602783499
2710,41.7573124571456
2,1, 1, 1, 0,11,45.00,50.00,Sunday
1074,21.5388305007539
1125,13.6605733685649
2708,39.978706549721
2710,40.8253525104297
2,1, 1, 1, 0,11,50.00,55.00,Sunday
1074,21.5209554141916
1125,12.631424942999
2708,39.1813406507365
2710,39.9638621714015
2,1, 1, 1, 0,11,55.00,60.00,Sunday
1074,21.4978477137844
1125,11.7749290103718
2708,38.4391002854189
2710,39.1656102340604
2,1, 1, 1, 0,11, 0.00,60.00,Sunday
1075,21.6037889531166
1126,19.2849906813004
2,1, 1, 1, 0,12, 0.00, 5.00,Sunday
1074,21.4733830227704
1125,11.1850229861801
2708,37.7348252725001
2710,38.4186577011858
2,1, 1, 1, 0,12, 5.00,10.00,Sunday
1074,21.4479597338801
1125,10.2940158878268
2708,37.0809917027464
2710,37.7190803776845
2,1, 1, 1, 0,12,10.00,15.00,Sunday
1074,21.4142445924174
1125,9.68174457916431
2708,36.4726725431792
2710,37.0673384093419
2,1, 1, 1, 0,12,15.00,20.00,Sunday
1074,21.3847785645412
1125,9.53178538872593
2708,35.875422764126
2710,36.448826098282
2,1, 1, 1, 0,12,20.00,25.00,Sunday
1074,21.3548492361594
1125,9.01460025451711
2708,35.3016061757234
2710,35.8528483509128
2,1, 1, 1, 0,12,25.00,30.00,Sunday
1074,21.3173321976157
1125,8.79258937293832
2708,34.7489943446508
2710,35.2795857618911
2,1, 1, 1, 0,12,30.00,35.00,Sunday
1074,21.2878692339742
1125,8.37167439493838
2708,34.2179524250598
2710,34.7284391590746
2,1, 1, 1, 0,12,35.00,40.00,Sunday
1074,21.2571828094275
1125,8.19813350724471
2708,33.7026918845616
2710,34.1963241376979
2,1, 1, 1, 0,12,40.00,45.00,Sunday
1074,21.2337662505751
1125,7.76973804738514
2708,33.2092332794511
2710,33.6836451326241
2,1, 1, 1, 0,12,45.00,50.00,Sunday
1074,21.2101552384543
1125,7.45219635748607
2708,32.7401352592915
2710,33.1929029497627
2,1, 1, 1, 0,12,50.00,55.00,Sunday
1074,21.1901019521211
1125,7.31652549603879
2708,32.2801970571979
2710,32.7198500386828
2,1, 1, 1, 0,12,55.00,60.00,Sunday
1074,21.1746163656984
1125,8.00462296405385
2708,32.8067695
2710,32.6337574851873
2,1, 1, 1, 0,12, 0.00,60.00,Sunday
1075,21.3121865998029
1126,8.80105410304162
2,1, 1, 1, 0,13, 0.00, 5.00,Sunday
1074,21.1571811550912
1125,8.7609691903084
2708,33.15411883
2710,32.8810063311334
2,1, 1, 1, 0,13, 5.00,10.00,Sunday
1074,21.1417145642898
1125,9.33019462017202
2708,33.51909211
2710,33.2006934621654
2,1, 1, 1, 0,13,10.00,15.00,Sunday
1074,21.1241068744018
1125,9.15650800812105
2708,32.89199444
2710,33.1679909947415
2,1, 1, 1, 0,13,15.00,20.00,Sunday
1074,21.1098434656802
1125,7.88406507937394
2708,31.9053127849273
2710,32.608828256982
2,1, 1, 1, 0,13,20.00,25.00,Sunday
1074,21.1009994220874
1125,7.16148336174256
2708,31.5561767617015
2710,32.0142509239478
2,1, 1, 1, 0,13,25.00,30.00,Sunday
1074,21.0961292240305
1125,6.9116912246148
2708,31.1316595242552
2710,31.5512210193782
2,1, 1, 1, 0,13,30.00,35.00,Sunday
1074,21.0972094711871
1125,6.63542173482768
2708,30.7133812179318
2710,31.1158926929455
2,1, 1, 1, 0,13,35.00,40.00,Sunday
1074,21.1010232404664
1125,6.34807348717667
2708,30.3130787664462
2710,30.6986388571643
2,1, 1, 1, 0,13,40.00,45.00,Sunday
1074,21.1079349036653
1125,6.08474272952216
2708,29.9299171436745
2710,30.2990660591385
2,1, 1, 1, 0,13,45.00,50.00,Sunday
1074,21.1141534968256
1125,5.86313054855691
2708,29.5609826756458
2710,29.9157027601239
2,1, 1, 1, 0,13,50.00,55.00,Sunday
1074,21.1175256501178
1125,5.45582122111464
2708,29.2157508325405
2710,29.5510596268549
2,1, 1, 1, 0,13,55.00,60.00,Sunday
1074,21.1245808520015
1125,5.30299551886255
2708,28.8850769112351
2710,29.2047144086607
2,1, 1, 1, 0,13, 0.00,60.00,Sunday
1075,21.1160335266537
1126,7.07459139369945
2,1, 1, 1, 0,14, 0.00, 5.00,Sunday
1074,21.1180033749791
1125,5.18097237907393
2708,28.5593805627643
2710,28.8705182722846
2,1, 1, 1, 0,14, 5.00,10.00,Sunday
1074,21.1166721855565
1125,4.807407832652
2708,28.2545103593584
2710,28.5498939053153
2,1, 1, 1, 0,14,10.00,15.00,Sunday
1074,21.1091905194979
1125,4.76224185118285
2708,27.9587604835243
2710,28.2429457121142
2,1, 1, 1, 0,14,15.00,20.00,Sunday
1074,21.0983110743777
1125,4.711854523449
2708,27.6621305616608
2710,27.9429513636098
2,1, 1, 1, 0,14,20.00,25.00,Sunday
1074,21.0863294093868
1125,10.7044808560184
2708,35.28477222
2710,30.6942394479329
2,1, 1, 1, 0,14,25.00,30.00,Sunday
1074,21.0952077827116
1125,10.435675511249
2708,29.3060938366331
2710,31.400779646261
2,1, 1, 1, 0,14,30.00,35.00,Sunday
1074,21.1168963629073
1125,9.99286196008467
2708,34.43931667
2710,32.0045316162365
2,1, 1, 1, 0,14,35.00,40.00,Sunday
1074,21.1379591022768
1125,11.4245513945287
2708,33.77865
2710,33.3469242538537
2,1, 1, 1, 0,14,40.00,45.00,Sunday
1074,21.168150729068
1125,9.02325694249163
2708,31.5444231774293
2710,32.771519122341
2,1, 1, 1, 0,14,45.00,50.00,Sunday
1074,21.1955374442381
1125,8.78711485443141
2708,32.96827778
2710,32.5144515754223
2,1, 1, 1, 0,14,50.00,55.00,Sunday
1074,21.217914935045
1125,8.22984073570862
2708,31.4085604374542
2710,32.2125473382409
2,1, 1, 1, 0,14,55.00,60.00,Sunday
1074,21.2433953476614
1125,7.11454202156051
2708,31.0965508022688
2710,31.5667467952778
2,1, 1, 1, 0,14, 0.00,60.00,Sunday
1075,21.1419640223089
1126,7.93123340520256
2,1, 1, 1, 0,15, 0.00, 5.00,Sunday
1074,21.2693092076579
1125,6.7753902283274
2708,30.6869141537781
2710,31.1014492786457
2,1, 1, 1, 0,15, 5.00,10.00,Sunday
1074,21.2959760319269
1125,6.47228135342236
2708,30.2802578213835
2710,30.6738640336883
2,1, 1, 1, 0,15,10.00,15.00,Sunday
1074,21.3164162778206
1125,6.20569642623586
2708,29.8896403572309
2710,30.2661565227051
2,1, 1, 1, 0,15,15.00,20.00,Sunday
1074,21.3281077567076
1125,5.97549513457807
2708,29.5135173476003
2710,29.8752067934597
2,1, 1, 1, 0,15,20.00,25.00,Sunday
1074,21.3358309857197
1125,5.72300347183193
2708,29.152782583186
2710,29.4998741337012
2,1, 1, 1, 0,15,25.00,30.00,Sunday
1074,21.3498886564343
1125,5.47926057490761
2708,28.8079185742035
2710,29.140193656976
2,1, 1, 1, 0,15,30.00,35.00,Sunday
1074,21.3566592119577
1125,5.25689010118387
2708,28.4773330569725
2710,28.7956973334601
2,1, 1, 1, 0,15,35.00,40.00,Sunday
1074,21.3634009854879
1125,4.77967451307574
2708,28.1744615788956
2710,28.4710237591141
2,1, 1, 1, 0,15,40.00,45.00,Sunday
1074,21.3657376186924
1125,4.64362212576686
2708,27.886705638645
2710,28.1662939653668
2,1, 1, 1, 0,15,45.00,50.00,Sunday
1074,21.3651075015436
1125,4.47991306906506
2708,27.6049226883
2710,27.8749376458747
2,1, 1, 1, 0,15,50.00,55.00,Sunday
1074,21.3705447163465
1125,8.49373678650353
2708,32.83510556
2710,29.7119201715614
2,1, 1, 1, 0,15,55.00,60.00,Sunday
1074,21.3801958482721
1125,10.1000809347289
2708,31.81881372
2710,31.3688305990208
2,1, 1, 1, 0,15, 0.00,60.00,Sunday
1075,21.3414312332139
1126,6.1987537266356
2,1, 1, 1, 0,16, 0.00, 5.00,Sunday
1074,21.3988056816912
1125,9.17402390718334
2708,31.92800556
2710,31.7060049260434
2,1, 1, 1, 0,16, 5.00,10.00,Sunday
1074,21.4257691439927
1125,7.9531903227173
2708,30.86771111
2710,31.4432369697374
2,1, 1, 1, 0,16,10.00,15.00,Sunday
1074,21.4529282413281
1125,7.41657038651836
2708,31.24171667
2710,31.2098265769889
2,1, 1, 1, 0,16,15.00,20.00,Sunday
1074,21.4785281245449
1125,7.61661323023856
2708,31.35853661
2710,31.2757340931634
2,1, 1, 1, 0,16,20.00,25.00,Sunday
1074,21.4987059492631
1125,7.66595286354662
2708,31.31854161
2710,31.3146359689821
2,1, 1, 1, 0,16,25.00,30.00,Sunday
1074,21.5217153012525
1125,7.4526359752482
2708,31.06270261
2710,31.2186625682181
2,1, 1, 1, 0,16,30.00,35.00,Sunday
1074,21.5425914814306
1125,7.1572806463801
2708,30.84337444
2710,31.0319038530903
2,1, 1, 1, 0,16,35.00,40.00,Sunday
1074,21.5649698541564
1125,7.39367203409679
2708,31.42408583
2710,31.1319151607734
2,1, 1, 1, 0,16,40.00,45.00,Sunday
1074,21.5935694343977
1125,8.04449630017805
2708,31.95878889
2710,31.529471956788
2,1, 1, 1, 0,16,45.00,50.00,Sunday
1074,21.6111222627727
1125,8.62222933767346
2708,32.3737
2710,31.9708384389062
2,1, 1, 1, 0,16,50.00,55.00,Sunday
1074,21.6209828533367
1125,7.81506712420697
2708,30.88730283
2710,31.6625764561281
2,1, 1, 1, 0,16,55.00,60.00,Sunday
1074,21.6206240235866
1125,6.74919647939587
2708,30.5464315717919
2710,31.0248630246845
2,1, 1, 1, 0,16, 0.00,60.00,Sunday
1075,21.5275260293128
1126,7.75507738394863
2,1, 1, 1, 0,17, 0.00, 5.00,Sunday
1074,21.6097245760371
1125,7.80266754148937
2708,31.21600256
2710,30.9682678131627
2,1, 1, 1, 0,17, 5.00,10.00,Sunday
1074,21.5897063485191
1125,8.89863887995664
2708,31.566
2710,31.2655431840839
2,1, 1, 1, 0,17,10.00,15.00,Sunday
1074,21.5675285081902
1125,9.55161370857553
2708,31.66771111
2710,31.5017700905812
2,1, 1, 1, 0,17,15.00,20.00,Sunday
1074,21.5548906405371
1125,9.59391744457487
2708,31.870558
2710,31.6887271779089
2,1, 1, 1, 0,17,20.00,25.00,Sunday
1074,21.5467489975385
1125,9.5954443172261
2708,32.26613333
2710,31.9603337682054
2,1, 1, 1, 0,17,25.00,30.00,Sunday
1074,21.5451601704796
1125,9.81759255239865
2708,32.74335
2710,32.3446884735389
2,1, 1, 1, 0,17,30.00,35.00,Sunday
1074,21.54871481548
1125,9.4149737037595
2708,32.18253667
2710,32.3901551385745
2,1, 1, 1, 0,17,35.00,40.00,Sunday
1074,21.5521009148255
1125,8.75604031305349
2708,31.84353333
2710,32.1234241904134
2,1, 1, 1, 0,17,40.00,45.00,Sunday
1074,21.5538419061055
1125,8.42854312057998
2708,31.75291111
2710,31.9049562093448
2,1, 1, 1, 0,17,45.00,50.00,Sunday
1074,21.5555051961216
1125,9.18754919642254
2708,32.67243889
2710,32.1593887751029
2,1, 1, 1, 0,17,50.00,55.00,Sunday
1074,21.5340664199545
1125,10.5908210979316
2708,33.22962778
2710,32.7104688055685
2,1, 1, 1, 0,17,55.00,60.00,Sunday
1074,21.5170657839054
1125,11.3152275755339
2708,33.51859444
2710,33.1622510788863
2,1, 1, 1, 0,17, 0.00,60.00,Sunday
1075,21.5562545231412
1126,9.41275245429185
2,1, 1, 1, 0,18, 0.00, 5.00,Sunday
1074,21.50435199009
1125,11.1798047532319
2708,32.99507222
2710,33.1943259892347
2,1, 1, 1, 0,18, 5.00,10.00,Sunday
1074,21.4915487663226
1125,10.7301232908543
2708,32.75036667
2710,32.9693992420111
2,1, 1, 1, 0,18,10.00,15.00,Sunday
1074,21.4766684468439
1125,10.4010654810223
2708,32.59288333
2710,32.7650937680146
2,1, 1, 1, 0,18,15.00,20.00,Sunday
1074,21.4526813693043
1125,11.1343773914182
2708,33.53625
2710,33.0154823823959
2,1, 1, 1, 0,18,20.00,25.00,Sunday
1074,21.4346526979937
1125,12.9278659732033
2708,35.27205
2710,34.0255591116131
2,1, 1, 1, 0,18,25.00,30.00,Sunday
1074,21.4207332870646
1125,12.5226480549546
2708,33.66786111
2710,34.2252214335863
2,1, 1, 1, 0,18,30.00,35.00,Sunday
1074,21.3981406118451
1125,12.1558438739703
2708,34.61656111
2710,34.22506505501
2,1, 1, 1, 0,18,35.00,40.00,Sunday
1074,21.375329550875
1125,12.6555928262867
2708,34.93830789
2710,34.6057451583343
2,1, 1, 1, 0,18,40.00,45.00,Sunday
1074,21.3526669667394
1125,12.9506315218141
2708,35.02718333
2710,34.8580850245601
2,1, 1, 1, 0,18,45.00,50.00,Sunday
1074,21.3317217302763
1125,13.1239877633042
2708,35.24656667
2710,35.0534817233642
2,1, 1, 1, 0,18,50.00,55.00,Sunday
1074,21.313346342956
1125,13.2397400049059
2708,35.35598889
2710,35.2222590850976
2,1, 1, 1, 0,18,55.00,60.00,Sunday
1074,21.2972047859048
1125,15.2498622823056
2708,37.70718333
2710,36.2155141145225
2,1, 1, 1, 0,18, 0.00,60.00,Sunday
1075,21.4040872121846
1126,12.3559619347726
2,1, 1, 1, 0,19, 0.00, 5.00,Sunday
1074,21.2832571424379
1125,26.619690095979
2708,49.42647278
2710,41.7074357897329
2,1, 1, 1, 0,19, 5.00,10.00,Sunday
1074,21.2933878069403
1125,37.2958794141314
2708,52.57607333
2710,47.9829872748415
2,1, 1, 1, 0,19,10.00,15.00,Sunday
1074,21.3387392428451
1125,40.4895545945673
2708,53.75606111
2710,51.4498107909765
2,1, 1, 1, 0,19,15.00,20.00,Sunday
1074,21.413347506781
1125,41.5249717011686
2708,55.57126389
2710,53.6614711067475
2,1, 1, 1, 0,19,20.00,25.00,Sunday
1074,21.5083041681375
1125,43.6608280387948
2708,58.00951667
2710,55.8530803273643
2,1, 1, 1, 0,19,25.00,30.00,Sunday
1074,21.606948344787
1125,41.0278183786391
2708,53.91882167
2710,55.6918635848339
2,1, 1, 1, 0,19,30.00,35.00,Sunday
1074,21.699077549539
1125,32.4189898084569
2708,49.8649657508705
2710,52.9719833804682
2,1, 1, 1, 0,19,35.00,40.00,Sunday
1074,21.7725298483693
1125,27.756789512556
2708,48.6062752602431
2710,50.4519208580368
2,1, 1, 1, 0,19,40.00,45.00,Sunday
1074,21.8137036430123
1125,25.8957082895439
2708,47.028045958279
2710,48.635191758294
2,1, 1, 1, 0,19,45.00,50.00,Sunday
1074,21.8366978572834
1125,24.0599005600571
2708,45.507084854783
2710,46.9970050312412
2,1, 1, 1, 0,19,50.00,55.00,Sunday
1074,21.8472758668055
1125,22.2262627987804
2708,44.0996504943673
2710,45.4793051040155
2,1, 1, 1, 0,19,55.00,60.00,Sunday
1074,21.8456409487163
1125,20.5828070215321
2708,42.7986649485914
2710,44.0748078773618
2,1, 1, 1, 0,19, 0.00,60.00,Sunday
1075,21.6049091604712
1126,31.9632666845172
2,1, 1, 1, 0,20, 0.00, 5.00,Sunday
1074,21.8330360733824
1125,14.9636279553482
2708,41.8161530050708
2710,42.8626777779439
2,1, 1, 1, 0,20, 5.00,10.00,Sunday
1074,21.8117310895482
1125,14.5750172324355
2708,40.9591939997285
2710,41.8483314857214
2,1, 1, 1, 0,20,10.00,15.00,Sunday
1074,21.7849413656608
1125,14.1383544270298
2708,40.0660990769089
2710,40.923215381043
2,1, 1, 1, 0,20,15.00,20.00,Sunday
1074,21.7538062000123