Program Version,EnergyPlus, Version 8.3.0-6d97d074ea, YMD=2017.09.17 21:54
1,5,Environment Title[],Latitude[deg],Longitude[deg],Time Zone[],Elevation[m]
2,6,Day of Simulation[],Month[],Day of Month[],DST Indicator[1=yes 0=no],Hour[],StartMinute[],EndMinute[],DayType
3,3,Cumulative Day of Simulation[],Month[],Day of Month[],DST Indicator[1=yes 0=no],DayType  ! When Daily Report Variables Requested
4,2,Cumulative Days of Simulation[],Month[]  ! When Monthly Report Variables Requested
5,1,Cumulative Days of Simulation[] ! When Run Period Report Variables Requested
1074,1,EMS,IW North Zone Average Temperature [C] !TimeStep
2617,1,CMU DISTRICTHEATING,District Heating Hot Water Energy [J] !Hourly
End of Data Dictionary
1,WHOLEYEAR,  40.35, -79.92,  -5.00, 380.00
2,1, 1, 1, 0, 1, 0.00,60.00,Sunday
1074,22.8836136732519
2,1, 1, 1, 0, 1, 0.00,60.00,Sunday
2617,0.0
2,1, 1, 1, 0, 2, 0.00,60.00,Sunday
1074,22.6792942965992
2,1, 1, 1, 0, 2, 0.00,60.00,Sunday
2617,0.0
2,1, 1, 1, 0, 3, 0.00,60.00,Sunday
1074,22.5476950737985
2,1, 1, 1, 0, 3, 0.00,60.00,Sunday
2617,0.0
2,1, 1, 1, 0, 4, 0.00,60.00,Sunday
1074,22.4106257468463
2,1, 1, 1, 0, 4, 0.00,60.00,Sunday
2617,0.0
2,1, 1, 1, 0, 5, 0.00,60.00,Sunday
1074,22.2547314049205
2,1, 1, 1, 0, 5, 0.00,60.00,Sunday
2617,0.0
2,1, 1, 1, 0, 6, 0.00,60.00,Sunday
1074,22.0887693275455
2,1, 1, 1, 0, 6, 0.00,60.00,Sunday
2617,0.0
2,1, 1, 1, 0, 7, 0.00,60.00,Sunday
1074,21.9106485340476
2,1, 1, 1, 0, 7, 0.00,60.00,Sunday
2617,0.0
2,1, 1, 1, 0, 8, 0.00,60.00,Sunday
1074,21.7213243456483
2,1, 1, 1, 0, 8, 0.00,60.00,Sunday
2617,0.0
2,1, 1, 1, 0, 9, 0.00,60.00,Sunday
1074,21.5247452988508
2,1, 1, 1, 0, 9, 0.00,60.00,Sunday
2617,0.0
2,1, 1, 1, 0,10, 0.00,60.00,Sunday
1074,21.3161125853191
2,1, 1, 1, 0,10, 0.00,60.00,Sunday
2617,1043787253.65294
2,1, 1, 1, 0,11, 0.00,60.00,Sunday
1074,21.2402218223991
2,1, 1, 1, 0,11, 0.00,60.00,Sunday
2617,746515225.402744
2,1, 1, 1, 0,12, 0.00,60.00,Sunday
1074,21.5065384834932
2,1, 1, 1, 0,12, 0.00,60.00,Sunday
2617,463485926.737754
2,1, 1, 1, 0,13, 0.00,60.00,Sunday
1074,22.8177225703804
2,1, 1, 1, 0,13, 0.00,60.00,Sunday
2617,0.0
2,1, 1, 1, 0,14, 0.00,60.00,Sunday
1074,23.9038134099899
2,1, 1, 1, 0,14, 0.00,60.00,Sunday
2617,0.0
2,1, 1, 1, 0,15, 0.00,60.00,Sunday
1074,24.2003300909177
2,1, 1, 1, 0,15, 0.00,60.00,Sunday
2617,0.0
2,1, 1, 1, 0,16, 0.00,60.00,Sunday
1074,24.3384492970863
2,1, 1, 1, 0,16, 0.00,60.00,Sunday
2617,0.0
2,1, 1, 1, 0,17, 0.00,60.00,Sunday
1074,24.436905702705
2,1, 1, 1, 0,17, 0.00,60.00,Sunday
2617,0.0
2,1, 1, 1, 0,18, 0.00,60.00,Sunday
1074,24.5602491831675
2,1, 1, 1, 0,18, 0.00,60.00,Sunday
2617,0.0
2,1, 1, 1, 0,19, 0.00,60.00,Sunday
1074,24.5171649900355
2,1, 1, 1, 0,19, 0.00,60.00,Sunday
2617,0.0
2,1, 1, 1, 0,20, 0.00,60.00,Sunday
1074,24.337649293979
2,1, 1, 1, 0,20, 0.00,60.00,Sunday
2617,0.0
2,1, 1, 1, 0,21, 0.00,60.00,Sunday
1074,24.1468673305898
2,1, 1, 1, 0,21, 0.00,60.00,Sunday
2617,0.0
2,1, 1, 1, 0,22, 0.00,60.00,Sunday
1074,23.9594240155148
2,1, 1, 1, 0,22, 0.00,60.00,Sunday
2617,0.0
2,1, 1, 1, 0,23, 0.00,60.00,Sunday
1074,23.7556057422771
2,1, 1, 1, 0,23, 0.00,60.00,Sunday
2617,0.0
2,1, 1, 1, 0,24, 0.00,60.00,Sunday
1074,23.5285197227674
2,1, 1, 1, 0,24, 0.00,60.00,Sunday
2617,0.0
2,2, 1, 2, 0, 1, 0.00,60.00,Monday
1074,23.290424140209
2,2, 1, 2, 0, 1, 0.00,60.00,Monday
2617,0.0
2,2, 1, 2, 0, 2, 0.00,60.00,Monday
1074,23.030200239021
2,2, 1, 2, 0, 2, 0.00,60.00,Monday
2617,0.0
2,2, 1, 2, 0, 3, 0.00,60.00,Monday
1074,22.8063898617992
2,2, 1, 2, 0, 3, 0.00,60.00,Monday
2617,0.0
2,2, 1, 2, 0, 4, 0.00,60.00,Monday
1074,22.6380792281071
2,2, 1, 2, 0, 4, 0.00,60.00,Monday
2617,0.0
2,2, 1, 2, 0, 5, 0.00,60.00,Monday
1074,22.4656312410547
2,2, 1, 2, 0, 5, 0.00,60.00,Monday
2617,0.0
2,2, 1, 2, 0, 6, 0.00,60.00,Monday
1074,22.290216806881
2,2, 1, 2, 0, 6, 0.00,60.00,Monday
2617,0.0
2,2, 1, 2, 0, 7, 0.00,60.00,Monday
1074,22.1231031983016
2,2, 1, 2, 0, 7, 0.00,60.00,Monday
2617,0.0
2,2, 1, 2, 0, 8, 0.00,60.00,Monday
1074,21.9795761789687
2,2, 1, 2, 0, 8, 0.00,60.00,Monday
2617,0.0
2,2, 1, 2, 0, 9, 0.00,60.00,Monday
1074,21.8337806324099
2,2, 1, 2, 0, 9, 0.00,60.00,Monday
2617,0.0
2,2, 1, 2, 0,10, 0.00,60.00,Monday
1074,21.6886326667145
2,2, 1, 2, 0,10, 0.00,60.00,Monday
2617,0.0
2,2, 1, 2, 0,11, 0.00,60.00,Monday
1074,21.5496078439766
2,2, 1, 2, 0,11, 0.00,60.00,Monday
2617,1039708204.02982
2,2, 1, 2, 0,12, 0.00,60.00,Monday
1074,21.5208529066968
2,2, 1, 2, 0,12, 0.00,60.00,Monday
2617,744146619.227715
2,2, 1, 2, 0,13, 0.00,60.00,Monday
1074,21.8352428021525
2,2, 1, 2, 0,13, 0.00,60.00,Monday
2617,4293863.01211744
2,2, 1, 2, 0,14, 0.00,60.00,Monday
1074,22.2533288959207
2,2, 1, 2, 0,14, 0.00,60.00,Monday
2617,0.0
2,2, 1, 2, 0,15, 0.00,60.00,Monday
1074,22.504075720745
2,2, 1, 2, 0,15, 0.00,60.00,Monday
2617,20774285.7511716
2,2, 1, 2, 0,16, 0.00,60.00,Monday
1074,22.6789994518369
2,2, 1, 2, 0,16, 0.00,60.00,Monday
2617,64924849.9166109
2,2, 1, 2, 0,17, 0.00,60.00,Monday
1074,22.7294549437251
2,2, 1, 2, 0,17, 0.00,60.00,Monday
2617,83513373.4342543
2,2, 1, 2, 0,18, 0.00,60.00,Monday
1074,22.743608353037
2,2, 1, 2, 0,18, 0.00,60.00,Monday
2617,0.0
2,2, 1, 2, 0,19, 0.00,60.00,Monday
1074,22.7350400034728
2,2, 1, 2, 0,19, 0.00,60.00,Monday
2617,0.0
2,2, 1, 2, 0,20, 0.00,60.00,Monday
1074,22.7057027777186
2,2, 1, 2, 0,20, 0.00,60.00,Monday
2617,0.0
2,2, 1, 2, 0,21, 0.00,60.00,Monday
1074,22.6544175467625
2,2, 1, 2, 0,21, 0.00,60.00,Monday
2617,0.0
2,2, 1, 2, 0,22, 0.00,60.00,Monday
1074,22.5895536075504
2,2, 1, 2, 0,22, 0.00,60.00,Monday
2617,0.0
2,2, 1, 2, 0,23, 0.00,60.00,Monday
1074,22.5182770736667
2,2, 1, 2, 0,23, 0.00,60.00,Monday
2617,0.0
2,2, 1, 2, 0,24, 0.00,60.00,Monday
1074,22.4328543470714
2,2, 1, 2, 0,24, 0.00,60.00,Monday
2617,0.0
2,3, 1, 3, 0, 1, 0.00,60.00,Tuesday
1074,22.3304449554714
2,3, 1, 3, 0, 1, 0.00,60.00,Tuesday
2617,0.0
2,3, 1, 3, 0, 2, 0.00,60.00,Tuesday
1074,22.2162891054481
2,3, 1, 3, 0, 2, 0.00,60.00,Tuesday
2617,0.0
2,3, 1, 3, 0, 3, 0.00,60.00,Tuesday
1074,22.0937060362105
2,3, 1, 3, 0, 3, 0.00,60.00,Tuesday
2617,0.0
2,3, 1, 3, 0, 4, 0.00,60.00,Tuesday
1074,21.9625542638337
2,3, 1, 3, 0, 4, 0.00,60.00,Tuesday
2617,0.0
2,3, 1, 3, 0, 5, 0.00,60.00,Tuesday
1074,21.8321239977229
2,3, 1, 3, 0, 5, 0.00,60.00,Tuesday
2617,0.0
2,3, 1, 3, 0, 6, 0.00,60.00,Tuesday
1074,21.7057568521883
2,3, 1, 3, 0, 6, 0.00,60.00,Tuesday
2617,0.0
2,3, 1, 3, 0, 7, 0.00,60.00,Tuesday
1074,21.5860800093909
2,3, 1, 3, 0, 7, 0.00,60.00,Tuesday
2617,0.0
2,3, 1, 3, 0, 8, 0.00,60.00,Tuesday
1074,21.4615194528027
2,3, 1, 3, 0, 8, 0.00,60.00,Tuesday
2617,0.0
2,3, 1, 3, 0, 9, 0.00,60.00,Tuesday
1074,21.3370036922148
2,3, 1, 3, 0, 9, 0.00,60.00,Tuesday
2617,977998871.370009
2,3, 1, 3, 0,10, 0.00,60.00,Tuesday
1074,21.3054625900142
2,3, 1, 3, 0,10, 0.00,60.00,Tuesday
2617,704581000.004468
2,3, 1, 3, 0,11, 0.00,60.00,Tuesday
1074,21.6013567562027
2,3, 1, 3, 0,11, 0.00,60.00,Tuesday
2617,443435353.830022
2,3, 1, 3, 0,12, 0.00,60.00,Tuesday
1074,22.0384394156438
2,3, 1, 3, 0,12, 0.00,60.00,Tuesday
2617,0.0
2,3, 1, 3, 0,13, 0.00,60.00,Tuesday
1074,22.4463498388955
2,3, 1, 3, 0,13, 0.00,60.00,Tuesday
2617,0.0
2,3, 1, 3, 0,14, 0.00,60.00,Tuesday
1074,22.7023902628471
2,3, 1, 3, 0,14, 0.00,60.00,Tuesday
2617,0.0
2,3, 1, 3, 0,15, 0.00,60.00,Tuesday
1074,22.874058835827
2,3, 1, 3, 0,15, 0.00,60.00,Tuesday
2617,0.0
2,3, 1, 3, 0,16, 0.00,60.00,Tuesday
1074,22.9116505191561
2,3, 1, 3, 0,16, 0.00,60.00,Tuesday
2617,0.0
2,3, 1, 3, 0,17, 0.00,60.00,Tuesday
1074,22.9067576168083
2,3, 1, 3, 0,17, 0.00,60.00,Tuesday
2617,0.0
2,3, 1, 3, 0,18, 0.00,60.00,Tuesday
1074,22.8887764015429
2,3, 1, 3, 0,18, 0.00,60.00,Tuesday
2617,0.0
2,3, 1, 3, 0,19, 0.00,60.00,Tuesday
1074,22.8566777569548
2,3, 1, 3, 0,19, 0.00,60.00,Tuesday
2617,0.0
2,3, 1, 3, 0,20, 0.00,60.00,Tuesday
1074,22.8098293861874
2,3, 1, 3, 0,20, 0.00,60.00,Tuesday
2617,0.0
2,3, 1, 3, 0,21, 0.00,60.00,Tuesday
1074,22.7549075471285
2,3, 1, 3, 0,21, 0.00,60.00,Tuesday
2617,0.0
2,3, 1, 3, 0,22, 0.00,60.00,Tuesday
1074,22.6969663831891
2,3, 1, 3, 0,22, 0.00,60.00,Tuesday
2617,0.0
2,3, 1, 3, 0,23, 0.00,60.00,Tuesday
1074,22.6474981727704
2,3, 1, 3, 0,23, 0.00,60.00,Tuesday
2617,0.0
2,3, 1, 3, 0,24, 0.00,60.00,Tuesday
1074,22.5881782654723
2,3, 1, 3, 0,24, 0.00,60.00,Tuesday
2617,0.0
2,4, 1, 4, 0, 1, 0.00,60.00,Wednesday
1074,22.5189063776259
2,4, 1, 4, 0, 1, 0.00,60.00,Wednesday
2617,0.0
2,4, 1, 4, 0, 2, 0.00,60.00,Wednesday
1074,22.4184550307299
2,4, 1, 4, 0, 2, 0.00,60.00,Wednesday
2617,0.0
2,4, 1, 4, 0, 3, 0.00,60.00,Wednesday
1074,22.2701560693793
2,4, 1, 4, 0, 3, 0.00,60.00,Wednesday
2617,0.0
2,4, 1, 4, 0, 4, 0.00,60.00,Wednesday
1074,22.064815623608
2,4, 1, 4, 0, 4, 0.00,60.00,Wednesday
2617,0.0
2,4, 1, 4, 0, 5, 0.00,60.00,Wednesday
1074,21.8894355653629
2,4, 1, 4, 0, 5, 0.00,60.00,Wednesday
2617,0.0
2,4, 1, 4, 0, 6, 0.00,60.00,Wednesday
1074,21.7582266713421
2,4, 1, 4, 0, 6, 0.00,60.00,Wednesday
2617,0.0
2,4, 1, 4, 0, 7, 0.00,60.00,Wednesday
1074,21.6204133379816
2,4, 1, 4, 0, 7, 0.00,60.00,Wednesday
2617,0.0
2,4, 1, 4, 0, 8, 0.00,60.00,Wednesday
1074,21.4286595069318
2,4, 1, 4, 0, 8, 0.00,60.00,Wednesday
2617,1004756322.30687
2,4, 1, 4, 0, 9, 0.00,60.00,Wednesday
1074,21.2996154445497
2,4, 1, 4, 0, 9, 0.00,60.00,Wednesday
2617,692521759.396947
2,4, 1, 4, 0,10, 0.00,60.00,Wednesday
1074,21.5215332118561
2,4, 1, 4, 0,10, 0.00,60.00,Wednesday
2617,441392367.645659
2,4, 1, 4, 0,11, 0.00,60.00,Wednesday
1074,21.8499198345617
2,4, 1, 4, 0,11, 0.00,60.00,Wednesday
2617,0.0
2,4, 1, 4, 0,12, 0.00,60.00,Wednesday
1074,22.1601051329532
2,4, 1, 4, 0,12, 0.00,60.00,Wednesday
2617,0.0
2,4, 1, 4, 0,13, 0.00,60.00,Wednesday
1074,22.5811678305232
2,4, 1, 4, 0,13, 0.00,60.00,Wednesday
2617,41048733.6355608
2,4, 1, 4, 0,14, 0.00,60.00,Wednesday
1074,22.9670228694308
2,4, 1, 4, 0,14, 0.00,60.00,Wednesday
2617,0.0
2,4, 1, 4, 0,15, 0.00,60.00,Wednesday
1074,23.0821415072079
2,4, 1, 4, 0,15, 0.00,60.00,Wednesday
2617,0.0
2,4, 1, 4, 0,16, 0.00,60.00,Wednesday
1074,22.9335070144284
2,4, 1, 4, 0,16, 0.00,60.00,Wednesday
2617,0.0
2,4, 1, 4, 0,17, 0.00,60.00,Wednesday
1074,22.7170421772745
2,4, 1, 4, 0,17, 0.00,60.00,Wednesday
2617,0.0
2,4, 1, 4, 0,18, 0.00,60.00,Wednesday
1074,22.6270628463169
2,4, 1, 4, 0,18, 0.00,60.00,Wednesday
2617,106737141.57367
2,4, 1, 4, 0,19, 0.00,60.00,Wednesday
1074,22.3837839625792
2,4, 1, 4, 0,19, 0.00,60.00,Wednesday
2617,438424266.882848
2,4, 1, 4, 0,20, 0.00,60.00,Wednesday
1074,22.1913751114309
2,4, 1, 4, 0,20, 0.00,60.00,Wednesday
2617,344312607.4778
2,4, 1, 4, 0,21, 0.00,60.00,Wednesday
1074,22.1580698859158
2,4, 1, 4, 0,21, 0.00,60.00,Wednesday
2617,0.0
2,4, 1, 4, 0,22, 0.00,60.00,Wednesday
1074,22.1258335881393
2,4, 1, 4, 0,22, 0.00,60.00,Wednesday
2617,0.0
2,4, 1, 4, 0,23, 0.00,60.00,Wednesday
1074,21.9721923008335
2,4, 1, 4, 0,23, 0.00,60.00,Wednesday
2617,0.0
2,4, 1, 4, 0,24, 0.00,60.00,Wednesday
1074,21.7594734655122
2,4, 1, 4, 0,24, 0.00,60.00,Wednesday
2617,0.0
2,5, 1, 5, 0, 1, 0.00,60.00,Thursday
1074,21.5083187781015
2,5, 1, 5, 0, 1, 0.00,60.00,Thursday
2617,0.0
2,5, 1, 5, 0, 2, 0.00,60.00,Thursday
1074,21.221090600619
2,5, 1, 5, 0, 2, 0.00,60.00,Thursday
2617,0.0
2,5, 1, 5, 0, 3, 0.00,60.00,Thursday
1074,20.9077117322263
2,5, 1, 5, 0, 3, 0.00,60.00,Thursday
2617,0.0
2,5, 1, 5, 0, 4, 0.00,60.00,Thursday
1074,20.5839833431866
2,5, 1, 5, 0, 4, 0.00,60.00,Thursday
2617,0.0
2,5, 1, 5, 0, 5, 0.00,60.00,Thursday
1074,20.2558922474
2,5, 1, 5, 0, 5, 0.00,60.00,Thursday
2617,803104376.737497
2,5, 1, 5, 0, 6, 0.00,60.00,Thursday
1074,20.0572692023812
2,5, 1, 5, 0, 6, 0.00,60.00,Thursday
2617,544967643.262726
2,5, 1, 5, 0, 7, 0.00,60.00,Thursday
1074,20.0213584303094
2,5, 1, 5, 0, 7, 0.00,60.00,Thursday
2617,349721492.721204
2,5, 1, 5, 0, 8, 0.00,60.00,Thursday
1074,20.0366263680933
2,5, 1, 5, 0, 8, 0.00,60.00,Thursday
2617,252139977.518888
2,5, 1, 5, 0, 9, 0.00,60.00,Thursday
1074,20.0525270307133
2,5, 1, 5, 0, 9, 0.00,60.00,Thursday
2617,212887344.903606
2,5, 1, 5, 0,10, 0.00,60.00,Thursday
1074,20.0736679482752
2,5, 1, 5, 0,10, 0.00,60.00,Thursday
2617,195854340.36763
2,5, 1, 5, 0,11, 0.00,60.00,Thursday
1074,20.1419195858696
2,5, 1, 5, 0,11, 0.00,60.00,Thursday
2617,195356627.28956
2,5, 1, 5, 0,12, 0.00,60.00,Thursday
1074,20.5979305377415
2,5, 1, 5, 0,12, 0.00,60.00,Thursday
2617,197799257.714223
2,5, 1, 5, 0,13, 0.00,60.00,Thursday
1074,21.0285661563145
2,5, 1, 5, 0,13, 0.00,60.00,Thursday
2617,197218721.852276
2,5, 1, 5, 0,14, 0.00,60.00,Thursday
1074,21.1913055222277
2,5, 1, 5, 0,14, 0.00,60.00,Thursday
2617,196812159.552063
2,5, 1, 5, 0,15, 0.00,60.00,Thursday
1074,21.2774648358629
2,5, 1, 5, 0,15, 0.00,60.00,Thursday
2617,196399332.769608
2,5, 1, 5, 0,16, 0.00,60.00,Thursday
1074,21.3661482611453
2,5, 1, 5, 0,16, 0.00,60.00,Thursday
2617,196216810.29174
2,5, 1, 5, 0,17, 0.00,60.00,Thursday
1074,21.4362505718862
2,5, 1, 5, 0,17, 0.00,60.00,Thursday
2617,194775716.217611
2,5, 1, 5, 0,18, 0.00,60.00,Thursday
1074,21.5105558625118
2,5, 1, 5, 0,18, 0.00,60.00,Thursday
2617,194959127.709283
2,5, 1, 5, 0,19, 0.00,60.00,Thursday
1074,21.5603188293211
2,5, 1, 5, 0,19, 0.00,60.00,Thursday
2617,196233189.630934
2,5, 1, 5, 0,20, 0.00,60.00,Thursday
1074,21.6030391881299
2,5, 1, 5, 0,20, 0.00,60.00,Thursday
2617,196697066.804583
2,5, 1, 5, 0,21, 0.00,60.00,Thursday
1074,21.6359869883904
2,5, 1, 5, 0,21, 0.00,60.00,Thursday
2617,181986470.773474
2,5, 1, 5, 0,22, 0.00,60.00,Thursday
1074,21.6687797028204
2,5, 1, 5, 0,22, 0.00,60.00,Thursday
2617,0.0
2,5, 1, 5, 0,23, 0.00,60.00,Thursday
1074,21.6518563754995
2,5, 1, 5, 0,23, 0.00,60.00,Thursday
2617,0.0
2,5, 1, 5, 0,24, 0.00,60.00,Thursday
1074,21.5932791751338
2,5, 1, 5, 0,24, 0.00,60.00,Thursday
2617,0.0
2,6, 1, 6, 0, 1, 0.00,60.00,Friday
1074,21.4480411313826
2,6, 1, 6, 0, 1, 0.00,60.00,Friday
2617,0.0
2,6, 1, 6, 0, 2, 0.00,60.00,Friday
1074,21.2319903713186
2,6, 1, 6, 0, 2, 0.00,60.00,Friday
2617,0.0
2,6, 1, 6, 0, 3, 0.00,60.00,Friday
1074,20.9706343680832
2,6, 1, 6, 0, 3, 0.00,60.00,Friday
2617,0.0
2,6, 1, 6, 0, 4, 0.00,60.00,Friday
1074,20.6802883085174
2,6, 1, 6, 0, 4, 0.00,60.00,Friday
2617,0.0
2,6, 1, 6, 0, 5, 0.00,60.00,Friday
1074,20.3540949287358
2,6, 1, 6, 0, 5, 0.00,60.00,Friday
2617,561620692.689646
2,6, 1, 6, 0, 6, 0.00,60.00,Friday
1074,20.1033624329493
2,6, 1, 6, 0, 6, 0.00,60.00,Friday
2617,404001073.644498
2,6, 1, 6, 0, 7, 0.00,60.00,Friday
1074,19.9559383189982
2,6, 1, 6, 0, 7, 0.00,60.00,Friday
2617,277577305.724406
2,6, 1, 6, 0, 8, 0.00,60.00,Friday
1074,19.865906986394
2,6, 1, 6, 0, 8, 0.00,60.00,Friday
2617,220439670.804058
2,6, 1, 6, 0, 9, 0.00,60.00,Friday
1074,19.770818421843
2,6, 1, 6, 0, 9, 0.00,60.00,Friday
2617,205156318.612384
2,6, 1, 6, 0,10, 0.00,60.00,Friday
1074,19.70908259447
2,6, 1, 6, 0,10, 0.00,60.00,Friday
2617,203598568.150817
2,6, 1, 6, 0,11, 0.00,60.00,Friday
1074,19.7982518002211
2,6, 1, 6, 0,11, 0.00,60.00,Friday
2617,203819945.543873
2,6, 1, 6, 0,12, 0.00,60.00,Friday
1074,19.9377478678752
2,6, 1, 6, 0,12, 0.00,60.00,Friday
2617,201890306.746763
2,6, 1, 6, 0,13, 0.00,60.00,Friday
1074,20.149341154802
2,6, 1, 6, 0,13, 0.00,60.00,Friday
2617,197953585.855952
2,6, 1, 6, 0,14, 0.00,60.00,Friday
1074,20.4819679167868
2,6, 1, 6, 0,14, 0.00,60.00,Friday
2617,194764289.303885
2,6, 1, 6, 0,15, 0.00,60.00,Friday
1074,21.0353539324907
2,6, 1, 6, 0,15, 0.00,60.00,Friday
2617,192567067.845929
2,6, 1, 6, 0,16, 0.00,60.00,Friday
1074,21.4131913767292
2,6, 1, 6, 0,16, 0.00,60.00,Friday
2617,191390173.8941
2,6, 1, 6, 0,17, 0.00,60.00,Friday
1074,21.5674258496974
2,6, 1, 6, 0,17, 0.00,60.00,Friday
2617,193221985.462061
2,6, 1, 6, 0,18, 0.00,60.00,Friday
1074,21.7304204839654
2,6, 1, 6, 0,18, 0.00,60.00,Friday
2617,114985625.774546
2,6, 1, 6, 0,19, 0.00,60.00,Friday
1074,21.7842633803474
2,6, 1, 6, 0,19, 0.00,60.00,Friday
2617,153574850.459475
2,6, 1, 6, 0,20, 0.00,60.00,Friday
1074,21.6957577688398
2,6, 1, 6, 0,20, 0.00,60.00,Friday
2617,244757606.402191
2,6, 1, 6, 0,21, 0.00,60.00,Friday
1074,21.6228376921155
2,6, 1, 6, 0,21, 0.00,60.00,Friday
2617,0.0
2,6, 1, 6, 0,22, 0.00,60.00,Friday
1074,21.5540350325874
2,6, 1, 6, 0,22, 0.00,60.00,Friday
2617,0.0
2,6, 1, 6, 0,23, 0.00,60.00,Friday
1074,21.3815187458523
2,6, 1, 6, 0,23, 0.00,60.00,Friday
2617,0.0
2,6, 1, 6, 0,24, 0.00,60.00,Friday
1074,21.1672215213875
2,6, 1, 6, 0,24, 0.00,60.00,Friday
2617,0.0
2,7, 1, 7, 0, 1, 0.00,60.00,Saturday
1074,20.9052948824384
2,7, 1, 7, 0, 1, 0.00,60.00,Saturday
2617,0.0
2,7, 1, 7, 0, 2, 0.00,60.00,Saturday
1074,20.5946057481289
2,7, 1, 7, 0, 2, 0.00,60.00,Saturday
2617,0.0
2,7, 1, 7, 0, 3, 0.00,60.00,Saturday
1074,20.2613018332185
2,7, 1, 7, 0, 3, 0.00,60.00,Saturday
2617,553679870.825493
2,7, 1, 7, 0, 4, 0.00,60.00,Saturday
1074,20.0058852332366
2,7, 1, 7, 0, 4, 0.00,60.00,Saturday
2617,401639519.6613
2,7, 1, 7, 0, 5, 0.00,60.00,Saturday
1074,19.8624785193228
2,7, 1, 7, 0, 5, 0.00,60.00,Saturday
2617,290011362.82066
2,7, 1, 7, 0, 6, 0.00,60.00,Saturday
1074,19.8978173553576
2,7, 1, 7, 0, 6, 0.00,60.00,Saturday
2617,218166605.167655
2,7, 1, 7, 0, 7, 0.00,60.00,Saturday
1074,19.823920572315
2,7, 1, 7, 0, 7, 0.00,60.00,Saturday
2617,182306123.467864
2,7, 1, 7, 0, 8, 0.00,60.00,Saturday
1074,19.7672667438965
2,7, 1, 7, 0, 8, 0.00,60.00,Saturday
2617,173104377.050518
2,7, 1, 7, 0, 9, 0.00,60.00,Saturday
1074,19.761892368854
2,7, 1, 7, 0, 9, 0.00,60.00,Saturday
2617,185387630.867586
2,7, 1, 7, 0,10, 0.00,60.00,Saturday
1074,19.7620649230052
2,7, 1, 7, 0,10, 0.00,60.00,Saturday
2617,199147611.763005
2,7, 1, 7, 0,11, 0.00,60.00,Saturday
1074,19.7714001248068
2,7, 1, 7, 0,11, 0.00,60.00,Saturday
2617,203094386.424502
2,7, 1, 7, 0,12, 0.00,60.00,Saturday
1074,19.9757107763189
2,7, 1, 7, 0,12, 0.00,60.00,Saturday
2617,202675213.10964
2,7, 1, 7, 0,13, 0.00,60.00,Saturday
1074,20.3407696228164
2,7, 1, 7, 0,13, 0.00,60.00,Saturday
2617,201397740.068622
2,7, 1, 7, 0,14, 0.00,60.00,Saturday
1074,20.7559178581346
2,7, 1, 7, 0,14, 0.00,60.00,Saturday
2617,199523177.597449
2,7, 1, 7, 0,15, 0.00,60.00,Saturday
1074,21.0433856820094
2,7, 1, 7, 0,15, 0.00,60.00,Saturday
2617,199043377.749691
2,7, 1, 7, 0,16, 0.00,60.00,Saturday
1074,21.2240819512954
2,7, 1, 7, 0,16, 0.00,60.00,Saturday
2617,200467347.213582
2,7, 1, 7, 0,17, 0.00,60.00,Saturday
1074,21.3333287516679
2,7, 1, 7, 0,17, 0.00,60.00,Saturday
2617,198252088.18829
2,7, 1, 7, 0,18, 0.00,60.00,Saturday
1074,21.3826514705435
2,7, 1, 7, 0,18, 0.00,60.00,Saturday
2617,198388114.730924
2,7, 1, 7, 0,19, 0.00,60.00,Saturday
1074,21.3960920835995
2,7, 1, 7, 0,19, 0.00,60.00,Saturday
2617,201334058.136838
2,7, 1, 7, 0,20, 0.00,60.00,Saturday
1074,21.4008988056432
2,7, 1, 7, 0,20, 0.00,60.00,Saturday
2617,0.0
2,7, 1, 7, 0,21, 0.00,60.00,Saturday
1074,21.3443296695728
2,7, 1, 7, 0,21, 0.00,60.00,Saturday
2617,0.0
2,7, 1, 7, 0,22, 0.00,60.00,Saturday
1074,21.1426241387793
2,7, 1, 7, 0,22, 0.00,60.00,Saturday
2617,0.0
2,7, 1, 7, 0,23, 0.00,60.00,Saturday
1074,20.8785774261515
2,7, 1, 7, 0,23, 0.00,60.00,Saturday
2617,0.0
2,7, 1, 7, 0,24, 0.00,60.00,Saturday
1074,20.5807214640531
2,7, 1, 7, 0,24, 0.00,60.00,Saturday
2617,0.0
2,8, 1, 8, 0, 1, 0.00,60.00,Sunday
1074,20.2570237455284
2,8, 1, 8, 0, 1, 0.00,60.00,Sunday
2617,482008796.754761
2,8, 1, 8, 0, 2, 0.00,60.00,Sunday
1074,20.0060086965664
2,8, 1, 8, 0, 2, 0.00,60.00,Sunday
2617,370185881.622723
2,8, 1, 8, 0, 3, 0.00,60.00,Sunday
1074,19.9271383991667
2,8, 1, 8, 0, 3, 0.00,60.00,Sunday
2617,264553192.299612
2,8, 1, 8, 0, 4, 0.00,60.00,Sunday
1074,19.8054944767897
2,8, 1, 8, 0, 4, 0.00,60.00,Sunday
2617,214794123.705916
2,8, 1, 8, 0, 5, 0.00,60.00,Sunday
1074,19.7960189516452
2,8, 1, 8, 0, 5, 0.00,60.00,Sunday
2617,188217988.454639
2,8, 1, 8, 0, 6, 0.00,60.00,Sunday
1074,19.7073542266163
2,8, 1, 8, 0, 6, 0.00,60.00,Sunday
2617,173801551.683285
2,8, 1, 8, 0, 7, 0.00,60.00,Sunday
1074,19.6787406689881
2,8, 1, 8, 0, 7, 0.00,60.00,Sunday
2617,172292964.18292
2,8, 1, 8, 0, 8, 0.00,60.00,Sunday
1074,19.6565657156022
2,8, 1, 8, 0, 8, 0.00,60.00,Sunday
2617,172414312.564153
2,8, 1, 8, 0, 9, 0.00,60.00,Sunday
1074,19.6312139061643
2,8, 1, 8, 0, 9, 0.00,60.00,Sunday
2617,187128555.502724
2,8, 1, 8, 0,10, 0.00,60.00,Sunday
1074,19.5857387959645
2,8, 1, 8, 0,10, 0.00,60.00,Sunday
2617,201159592.91566
2,8, 1, 8, 0,11, 0.00,60.00,Sunday
1074,19.7821467626733
2,8, 1, 8, 0,11, 0.00,60.00,Sunday
2617,204556271.263394
2,8, 1, 8, 0,12, 0.00,60.00,Sunday
1074,20.0339865227988
2,8, 1, 8, 0,12, 0.00,60.00,Sunday
2617,204049452.239736
2,8, 1, 8, 0,13, 0.00,60.00,Sunday
1074,20.2941353549618
2,8, 1, 8, 0,13, 0.00,60.00,Sunday
2617,201661381.654624
2,8, 1, 8, 0,14, 0.00,60.00,Sunday
1074,20.4985356337698
2,8, 1, 8, 0,14, 0.00,60.00,Sunday
2617,201530574.33122
2,8, 1, 8, 0,15, 0.00,60.00,Sunday
1074,20.6497882555353
2,8, 1, 8, 0,15, 0.00,60.00,Sunday
2617,202909278.575943
2,8, 1, 8, 0,16, 0.00,60.00,Sunday
1074,20.7915523319737
2,8, 1, 8, 0,16, 0.00,60.00,Sunday
2617,201429920.481582
2,8, 1, 8, 0,17, 0.00,60.00,Sunday
1074,20.887289646757
2,8, 1, 8, 0,17, 0.00,60.00,Sunday
2617,201172977.692936
2,8, 1, 8, 0,18, 0.00,60.00,Sunday
1074,21.0717653739913
2,8, 1, 8, 0,18, 0.00,60.00,Sunday
2617,202329700.886806
2,8, 1, 8, 0,19, 0.00,60.00,Sunday
1074,21.1999216051626
2,8, 1, 8, 0,19, 0.00,60.00,Sunday
2617,202637318.026423
2,8, 1, 8, 0,20, 0.00,60.00,Sunday
1074,21.2208724105696
2,8, 1, 8, 0,20, 0.00,60.00,Sunday
2617,186868006.821719
2,8, 1, 8, 0,21, 0.00,60.00,Sunday
1074,21.1956706728089
2,8, 1, 8, 0,21, 0.00,60.00,Sunday
2617,0.0
2,8, 1, 8, 0,22, 0.00,60.00,Sunday
1074,21.1295658950319
2,8, 1, 8, 0,22, 0.00,60.00,Sunday
2617,0.0
2,8, 1, 8, 0,23, 0.00,60.00,Sunday
1074,20.9655653742038
2,8, 1, 8, 0,23, 0.00,60.00,Sunday
2617,0.0
2,8, 1, 8, 0,24, 0.00,60.00,Sunday
1074,20.7400666854523
2,8, 1, 8, 0,24, 0.00,60.00,Sunday
2617,0.0
2,9, 1, 9, 0, 1, 0.00,60.00,Monday
1074,20.4689468384024
2,9, 1, 9, 0, 1, 0.00,60.00,Monday
2617,406570578.322366
2,9, 1, 9, 0, 2, 0.00,60.00,Monday
1074,20.2266652545789
2,9, 1, 9, 0, 2, 0.00,60.00,Monday
2617,311893332.461123
2,9, 1, 9, 0, 3, 0.00,60.00,Monday
1074,20.042078415055
2,9, 1, 9, 0, 3, 0.00,60.00,Monday
2617,241828952.559183
2,9, 1, 9, 0, 4, 0.00,60.00,Monday
1074,20.0177789680737
2,9, 1, 9, 0, 4, 0.00,60.00,Monday
2617,195084686.055808
2,9, 1, 9, 0, 5, 0.00,60.00,Monday
1074,19.8885476133346
2,9, 1, 9, 0, 5, 0.00,60.00,Monday
2617,170507231.138601
2,9, 1, 9, 0, 6, 0.00,60.00,Monday
1074,19.7990413918492
2,9, 1, 9, 0, 6, 0.00,60.00,Monday
2617,167670445.979907
2,9, 1, 9, 0, 7, 0.00,60.00,Monday
1074,19.7724100363819
2,9, 1, 9, 0, 7, 0.00,60.00,Monday
2617,169335683.032815
2,9, 1, 9, 0, 8, 0.00,60.00,Monday
1074,19.7635014909567
2,9, 1, 9, 0, 8, 0.00,60.00,Monday
2617,181626319.086236
2,9, 1, 9, 0, 9, 0.00,60.00,Monday
1074,19.7549930128277
2,9, 1, 9, 0, 9, 0.00,60.00,Monday
2617,193535450.699574
2,9, 1, 9, 0,10, 0.00,60.00,Monday
1074,19.7538883681335
2,9, 1, 9, 0,10, 0.00,60.00,Monday
2617,197873332.626372
2,9, 1, 9, 0,11, 0.00,60.00,Monday
1074,19.762037838887
2,9, 1, 9, 0,11, 0.00,60.00,Monday
2617,200773945.229962
2,9, 1, 9, 0,12, 0.00,60.00,Monday
1074,19.855311333666
2,9, 1, 9, 0,12, 0.00,60.00,Monday
2617,202704715.00314
2,9, 1, 9, 0,13, 0.00,60.00,Monday
1074,20.0032810691984
2,9, 1, 9, 0,13, 0.00,60.00,Monday
2617,204237523.374273
2,9, 1, 9, 0,14, 0.00,60.00,Monday
1074,20.2247282773192
2,9, 1, 9, 0,14, 0.00,60.00,Monday
2617,202987934.481019
2,9, 1, 9, 0,15, 0.00,60.00,Monday
1074,20.5719650775933
2,9, 1, 9, 0,15, 0.00,60.00,Monday
2617,198442783.680619
2,9, 1, 9, 0,16, 0.00,60.00,Monday
1074,21.0691363828343
2,9, 1, 9, 0,16, 0.00,60.00,Monday
2617,194096338.446565
2,9, 1, 9, 0,17, 0.00,60.00,Monday
1074,21.5335107235655
2,9, 1, 9, 0,17, 0.00,60.00,Monday
2617,191304954.284512
2,9, 1, 9, 0,18, 0.00,60.00,Monday
1074,21.8482644266201
2,9, 1, 9, 0,18, 0.00,60.00,Monday
2617,0.0
2,9, 1, 9, 0,19, 0.00,60.00,Monday
1074,22.0055949592967
2,9, 1, 9, 0,19, 0.00,60.00,Monday
2617,10695244.1408297
2,9, 1, 9, 0,20, 0.00,60.00,Monday
1074,21.9443964281098
2,9, 1, 9, 0,20, 0.00,60.00,Monday
2617,83216761.4648776
2,9, 1, 9, 0,21, 0.00,60.00,Monday
1074,21.8307067383949
2,9, 1, 9, 0,21, 0.00,60.00,Monday
2617,0.0
2,9, 1, 9, 0,22, 0.00,60.00,Monday
1074,21.6948282858925
2,9, 1, 9, 0,22, 0.00,60.00,Monday
2617,0.0
2,9, 1, 9, 0,23, 0.00,60.00,Monday
1074,21.5193567852461
2,9, 1, 9, 0,23, 0.00,60.00,Monday
2617,0.0
2,9, 1, 9, 0,24, 0.00,60.00,Monday
1074,21.3258967761117
2,9, 1, 9, 0,24, 0.00,60.00,Monday
2617,0.0
2,10, 1,10, 0, 1, 0.00,60.00,Tuesday
1074,21.1064925077251
2,10, 1,10, 0, 1, 0.00,60.00,Tuesday
2617,0.0
2,10, 1,10, 0, 2, 0.00,60.00,Tuesday
1074,20.8693692991597
2,10, 1,10, 0, 2, 0.00,60.00,Tuesday
2617,0.0
2,10, 1,10, 0, 3, 0.00,60.00,Tuesday
1074,20.6291519622261
2,10, 1,10, 0, 3, 0.00,60.00,Tuesday
2617,0.0
2,10, 1,10, 0, 4, 0.00,60.00,Tuesday
1074,20.3963247747116
2,10, 1,10, 0, 4, 0.00,60.00,Tuesday
2617,677097694.067029
2,10, 1,10, 0, 5, 0.00,60.00,Tuesday
1074,20.288934095797
2,10, 1,10, 0, 5, 0.00,60.00,Tuesday
2617,467527050.713061
2,10, 1,10, 0, 6, 0.00,60.00,Tuesday
1074,20.3057510044503
2,10, 1,10, 0, 6, 0.00,60.00,Tuesday
2617,304860538.518903
2,10, 1,10, 0, 7, 0.00,60.00,Tuesday
1074,20.3565933017449
2,10, 1,10, 0, 7, 0.00,60.00,Tuesday
2617,212843250.011358
2,10, 1,10, 0, 8, 0.00,60.00,Tuesday
1074,20.3757356599321
2,10, 1,10, 0, 8, 0.00,60.00,Tuesday
2617,181522289.103035
2,10, 1,10, 0, 9, 0.00,60.00,Tuesday
1074,20.3978428293719
2,10, 1,10, 0, 9, 0.00,60.00,Tuesday
2617,185884946.955422
2,10, 1,10, 0,10, 0.00,60.00,Tuesday
1074,20.6284398750783
2,10, 1,10, 0,10, 0.00,60.00,Tuesday
2617,190882731.095721
2,10, 1,10, 0,11, 0.00,60.00,Tuesday
1074,20.9281730046854
2,10, 1,10, 0,11, 0.00,60.00,Tuesday
2617,188996678.913155
2,10, 1,10, 0,12, 0.00,60.00,Tuesday
1074,21.2448965132234
2,10, 1,10, 0,12, 0.00,60.00,Tuesday
2617,186983227.982907
2,10, 1,10, 0,13, 0.00,60.00,Tuesday
1074,21.5657625808572
2,10, 1,10, 0,13, 0.00,60.00,Tuesday
2617,185864443.569047
2,10, 1,10, 0,14, 0.00,60.00,Tuesday
1074,21.8652304432743
2,10, 1,10, 0,14, 0.00,60.00,Tuesday
2617,0.0
2,10, 1,10, 0,15, 0.00,60.00,Tuesday
1074,22.1154993204938
2,10, 1,10, 0,15, 0.00,60.00,Tuesday
2617,0.0
2,10, 1,10, 0,16, 0.00,60.00,Tuesday
1074,22.2485861421038
2,10, 1,10, 0,16, 0.00,60.00,Tuesday
2617,0.0
2,10, 1,10, 0,17, 0.00,60.00,Tuesday
1074,22.3352421626735
2,10, 1,10, 0,17, 0.00,60.00,Tuesday
2617,0.0
2,10, 1,10, 0,18, 0.00,60.00,Tuesday
1074,22.4217324731679
2,10, 1,10, 0,18, 0.00,60.00,Tuesday
2617,0.0
2,10, 1,10, 0,19, 0.00,60.00,Tuesday
1074,22.4148568749716
2,10, 1,10, 0,19, 0.00,60.00,Tuesday
2617,0.0
2,10, 1,10, 0,20, 0.00,60.00,Tuesday
1074,22.3957638860139
2,10, 1,10, 0,20, 0.00,60.00,Tuesday
2617,8851287.87226134
2,10, 1,10, 0,21, 0.00,60.00,Tuesday
1074,22.3722042062087
2,10, 1,10, 0,21, 0.00,60.00,Tuesday
2617,27394492.5165287
2,10, 1,10, 0,22, 0.00,60.00,Tuesday
1074,22.3455762376017
2,10, 1,10, 0,22, 0.00,60.00,Tuesday
2617,0.0
2,10, 1,10, 0,23, 0.00,60.00,Tuesday
1074,22.3056999885726
2,10, 1,10, 0,23, 0.00,60.00,Tuesday
2617,0.0
2,10, 1,10, 0,24, 0.00,60.00,Tuesday
1074,22.2624608773754
2,10, 1,10, 0,24, 0.00,60.00,Tuesday
2617,0.0
2,11, 1,11, 0, 1, 0.00,60.00,Wednesday
1074,22.2002195875502
2,11, 1,11, 0, 1, 0.00,60.00,Wednesday
2617,0.0
2,11, 1,11, 0, 2, 0.00,60.00,Wednesday
1074,22.134509516798
2,11, 1,11, 0, 2, 0.00,60.00,Wednesday
2617,0.0
2,11, 1,11, 0, 3, 0.00,60.00,Wednesday
1074,22.0782169273137
2,11, 1,11, 0, 3, 0.00,60.00,Wednesday
2617,0.0
2,11, 1,11, 0, 4, 0.00,60.00,Wednesday
1074,22.0082910180677
2,11, 1,11, 0, 4, 0.00,60.00,Wednesday
2617,0.0
2,11, 1,11, 0, 5, 0.00,60.00,Wednesday
1074,21.9290819782414
2,11, 1,11, 0, 5, 0.00,60.00,Wednesday
2617,0.0
2,11, 1,11, 0, 6, 0.00,60.00,Wednesday
1074,21.8348518584851
2,11, 1,11, 0, 6, 0.00,60.00,Wednesday
2617,0.0
2,11, 1,11, 0, 7, 0.00,60.00,Wednesday
1074,21.721077423428
2,11, 1,11, 0, 7, 0.00,60.00,Wednesday
2617,0.0
2,11, 1,11, 0, 8, 0.00,60.00,Wednesday
1074,21.591103451133
2,11, 1,11, 0, 8, 0.00,60.00,Wednesday
2617,0.0
2,11, 1,11, 0, 9, 0.00,60.00,Wednesday
1074,21.4490582318713
2,11, 1,11, 0, 9, 0.00,60.00,Wednesday
2617,868756392.392472
2,11, 1,11, 0,10, 0.00,60.00,Wednesday
1074,21.3890994197135
2,11, 1,11, 0,10, 0.00,60.00,Wednesday
2617,632273544.172381
2,11, 1,11, 0,11, 0.00,60.00,Wednesday
1074,21.6774794476447
2,11, 1,11, 0,11, 0.00,60.00,Wednesday
2617,404921822.396967
2,11, 1,11, 0,12, 0.00,60.00,Wednesday
1074,22.1924877729645
2,11, 1,11, 0,12, 0.00,60.00,Wednesday
2617,0.0
2,11, 1,11, 0,13, 0.00,60.00,Wednesday
1074,22.9476113529561
2,11, 1,11, 0,13, 0.00,60.00,Wednesday
2617,0.0
2,11, 1,11, 0,14, 0.00,60.00,Wednesday
1074,23.5120722257671
2,11, 1,11, 0,14, 0.00,60.00,Wednesday
2617,0.0
2,11, 1,11, 0,15, 0.00,60.00,Wednesday
1074,23.0536140791376
2,11, 1,11, 0,15, 0.00,60.00,Wednesday
2617,0.0
2,11, 1,11, 0,16, 0.00,60.00,Wednesday
1074,22.5637001948828
2,11, 1,11, 0,16, 0.00,60.00,Wednesday
2617,0.0
2,11, 1,11, 0,17, 0.00,60.00,Wednesday
1074,22.3434430226885
2,11, 1,11, 0,17, 0.00,60.00,Wednesday
2617,0.0
2,11, 1,11, 0,18, 0.00,60.00,Wednesday
1074,22.1624293016633
2,11, 1,11, 0,18, 0.00,60.00,Wednesday
2617,0.0
2,11, 1,11, 0,19, 0.00,60.00,Wednesday
1074,21.9761209230348
2,11, 1,11, 0,19, 0.00,60.00,Wednesday
2617,0.0
2,11, 1,11, 0,20, 0.00,60.00,Wednesday
1074,21.7558600698676
2,11, 1,11, 0,20, 0.00,60.00,Wednesday
2617,0.0
2,11, 1,11, 0,21, 0.00,60.00,Wednesday
1074,21.5027331424719
2,11, 1,11, 0,21, 0.00,60.00,Wednesday
2617,0.0
2,11, 1,11, 0,22, 0.00,60.00,Wednesday
1074,21.9491491775064
2,11, 1,11, 0,22, 0.00,60.00,Wednesday
2617,0.0
2,11, 1,11, 0,23, 0.00,60.00,Wednesday
1074,22.4851192285184
2,11, 1,11, 0,23, 0.00,60.00,Wednesday
2617,0.0
2,11, 1,11, 0,24, 0.00,60.00,Wednesday
1074,22.3121613628535
2,11, 1,11, 0,24, 0.00,60.00,Wednesday
2617,0.0
2,12, 1,12, 0, 1, 0.00,60.00,Thursday
1074,21.9867945483415
2,12, 1,12, 0, 1, 0.00,60.00,Thursday
2617,0.0
2,12, 1,12, 0, 2, 0.00,60.00,Thursday
1074,21.7934014324169
2,12, 1,12, 0, 2, 0.00,60.00,Thursday
2617,0.0
2,12, 1,12, 0, 3, 0.00,60.00,Thursday
1074,21.6897999374999
2,12, 1,12, 0, 3, 0.00,60.00,Thursday
2617,0.0