Program Version,EnergyPlus, Version 8.3.0-6d97d074ea, YMD=2017.09.20 23:03
1,5,Environment Title[],Latitude[deg],Longitude[deg],Time Zone[],Elevation[m]
2,6,Day of Simulation[],Month[],Day of Month[],DST Indicator[1=yes 0=no],Hour[],StartMinute[],EndMinute[],DayType
3,3,Cumulative Day of Simulation[],Month[],Day of Month[],DST Indicator[1=yes 0=no],DayType  ! When Daily Report Variables Requested
4,2,Cumulative Days of Simulation[],Month[]  ! When Monthly Report Variables Requested
5,1,Cumulative Days of Simulation[] ! When Run Period Report Variables Requested
1074,1,EMS,IW North Zone Average Temperature [C] !TimeStep
1124,1,EMS,IW Calculated Heating Demand [KW] !TimeStep
End of Data Dictionary
1,WHOLEYEAR,  40.35, -79.92,  -5.00, 380.00
2,1, 1, 1, 0, 1, 0.00,60.00,Sunday
1074,22.8836136732519
1124,14.4148022307844
2,1, 1, 1, 0, 2, 0.00,60.00,Sunday
1074,22.6792942965992
1124,14.1142425134917
2,1, 1, 1, 0, 3, 0.00,60.00,Sunday
1074,22.5476950737985
1124,13.5022524380396
2,1, 1, 1, 0, 4, 0.00,60.00,Sunday
1074,22.4106257468463
1124,13.3047416855115
2,1, 1, 1, 0, 5, 0.00,60.00,Sunday
1074,22.2547314049205
1124,12.9710381459431
2,1, 1, 1, 0, 6, 0.00,60.00,Sunday
1074,22.0887693275455
1124,12.8076392958912
2,1, 1, 1, 0, 7, 0.00,60.00,Sunday
1074,21.9106485340476
1124,12.6570832025156
2,1, 1, 1, 0, 8, 0.00,60.00,Sunday
1074,21.7213243456483
1124,12.3725209898717
2,1, 1, 1, 0, 9, 0.00,60.00,Sunday
1074,21.5247452988508
1124,14.981423774047
2,1, 1, 1, 0,10, 0.00,60.00,Sunday
1074,21.3161125853191
1124,25.4785363641856
2,1, 1, 1, 0,11, 0.00,60.00,Sunday
1074,21.2402218223991
1124,48.2223139504899
2,1, 1, 1, 0,12, 0.00,60.00,Sunday
1074,21.5065384834932
1124,49.1907710059398
2,1, 1, 1, 0,13, 0.00,60.00,Sunday
1074,22.8177225703804
1124,41.0861480797901
2,1, 1, 1, 0,14, 0.00,60.00,Sunday
1074,23.9038134099899
1124,37.8687354240742
2,1, 1, 1, 0,15, 0.00,60.00,Sunday
1074,24.2003300909177
1124,35.485482976922
2,1, 1, 1, 0,16, 0.00,60.00,Sunday
1074,24.3384492970863
1124,32.9363549809558
2,1, 1, 1, 0,17, 0.00,60.00,Sunday
1074,24.436905702705
1124,31.1565498327747
2,1, 1, 1, 0,18, 0.00,60.00,Sunday
1074,24.5602491831675
1124,30.7903548011527
2,1, 1, 1, 0,19, 0.00,60.00,Sunday
1074,24.5171649900355
1124,29.4039429883681
2,1, 1, 1, 0,20, 0.00,60.00,Sunday
1074,24.337649293979
1124,23.3648942961003
2,1, 1, 1, 0,21, 0.00,60.00,Sunday
1074,24.1468673305898
1124,22.0331803200051
2,1, 1, 1, 0,22, 0.00,60.00,Sunday
1074,23.9594240155148
1124,20.6901092551163
2,1, 1, 1, 0,23, 0.00,60.00,Sunday
1074,23.7556057422771
1124,19.9531641685194
2,1, 1, 1, 0,24, 0.00,60.00,Sunday
1074,23.5285197227674
1124,19.290866557131
2,2, 1, 2, 0, 1, 0.00,60.00,Monday
1074,23.290424140209
1124,19.6903323648965
2,2, 1, 2, 0, 2, 0.00,60.00,Monday
1074,23.030200239021
1124,16.2003135283067
2,2, 1, 2, 0, 3, 0.00,60.00,Monday
1074,22.8063898617992
1124,15.8634727879776
2,2, 1, 2, 0, 4, 0.00,60.00,Monday
1074,22.6380792281071
1124,15.0912110140613
2,2, 1, 2, 0, 5, 0.00,60.00,Monday
1074,22.4656312410547
1124,14.5627179546289
2,2, 1, 2, 0, 6, 0.00,60.00,Monday
1074,22.290216806881
1124,14.3469132853867
2,2, 1, 2, 0, 7, 0.00,60.00,Monday
1074,22.1231031983016
1124,13.1729814440881
2,2, 1, 2, 0, 8, 0.00,60.00,Monday
1074,21.9795761789687
1124,15.9569115203509
2,2, 1, 2, 0, 9, 0.00,60.00,Monday
1074,21.8337806324099
1124,15.3726185100814
2,2, 1, 2, 0,10, 0.00,60.00,Monday
1074,21.6886326667145
1124,14.3371173166387
2,2, 1, 2, 0,11, 0.00,60.00,Monday
1074,21.5496078439766
1124,24.6204013453862
2,2, 1, 2, 0,12, 0.00,60.00,Monday
1074,21.5208529066968
1124,48.6846723870972
2,2, 1, 2, 0,13, 0.00,60.00,Monday
1074,21.8352428021525
1124,40.7197671187667
2,2, 1, 2, 0,14, 0.00,60.00,Monday
1074,22.2533288959207
1124,35.8548499222962
2,2, 1, 2, 0,15, 0.00,60.00,Monday
1074,22.504075720745
1124,34.6542143556135
2,2, 1, 2, 0,16, 0.00,60.00,Monday
1074,22.6789994518369
1124,30.2250122585957
2,2, 1, 2, 0,17, 0.00,60.00,Monday
1074,22.7294549437251
1124,30.2476011720351
2,2, 1, 2, 0,18, 0.00,60.00,Monday
1074,22.743608353037
1124,27.3986520422123
2,2, 1, 2, 0,19, 0.00,60.00,Monday
1074,22.7350400034728
1124,25.3518136494802
2,2, 1, 2, 0,20, 0.00,60.00,Monday
1074,22.7057027777186
1124,23.3536178210653
2,2, 1, 2, 0,21, 0.00,60.00,Monday
1074,22.6544175467625
1124,18.2653541149769
2,2, 1, 2, 0,22, 0.00,60.00,Monday
1074,22.5895536075504
1124,17.4499750879739
2,2, 1, 2, 0,23, 0.00,60.00,Monday
1074,22.5182770736667
1124,16.726750745568
2,2, 1, 2, 0,24, 0.00,60.00,Monday
1074,22.4328543470714
1124,16.0304352699117
2,3, 1, 3, 0, 1, 0.00,60.00,Tuesday
1074,22.3304449554714
1124,15.7128452767601
2,3, 1, 3, 0, 2, 0.00,60.00,Tuesday
1074,22.2162891054481
1124,14.8277188940438
2,3, 1, 3, 0, 3, 0.00,60.00,Tuesday
1074,22.0937060362105
1124,14.5444460178231
2,3, 1, 3, 0, 4, 0.00,60.00,Tuesday
1074,21.9625542638337
1124,14.1244100728949
2,3, 1, 3, 0, 5, 0.00,60.00,Tuesday
1074,21.8321239977229
1124,13.9971036323486
2,3, 1, 3, 0, 6, 0.00,60.00,Tuesday
1074,21.7057568521883
1124,13.0988172230747
2,3, 1, 3, 0, 7, 0.00,60.00,Tuesday
1074,21.5860800093909
1124,12.723306957645
2,3, 1, 3, 0, 8, 0.00,60.00,Tuesday
1074,21.4615194528027
1124,15.7460462842312
2,3, 1, 3, 0, 9, 0.00,60.00,Tuesday
1074,21.3370036922148
1124,26.5380125291559
2,3, 1, 3, 0,10, 0.00,60.00,Tuesday
1074,21.3054625900142
1124,48.1905794990199
2,3, 1, 3, 0,11, 0.00,60.00,Tuesday
1074,21.6013567562027
1124,50.2959640854432
2,3, 1, 3, 0,12, 0.00,60.00,Tuesday
1074,22.0384394156438
1124,45.1248366965834
2,3, 1, 3, 0,13, 0.00,60.00,Tuesday
1074,22.4463498388955
1124,40.9125157031951
2,3, 1, 3, 0,14, 0.00,60.00,Tuesday
1074,22.7023902628471
1124,38.1417403836245
2,3, 1, 3, 0,15, 0.00,60.00,Tuesday
1074,22.874058835827
1124,30.5103328416696
2,3, 1, 3, 0,16, 0.00,60.00,Tuesday
1074,22.9116505191561
1124,28.6213515406296
2,3, 1, 3, 0,17, 0.00,60.00,Tuesday
1074,22.9067576168083
1124,27.7986731386173
2,3, 1, 3, 0,18, 0.00,60.00,Tuesday
1074,22.8887764015429
1124,26.2751677009865
2,3, 1, 3, 0,19, 0.00,60.00,Tuesday
1074,22.8566777569548
1124,24.6891566480933
2,3, 1, 3, 0,20, 0.00,60.00,Tuesday
1074,22.8098293861874
1124,23.310220484177
2,3, 1, 3, 0,21, 0.00,60.00,Tuesday
1074,22.7549075471285
1124,18.484478212944
2,3, 1, 3, 0,22, 0.00,60.00,Tuesday
1074,22.6969663831891
1124,17.4406739232757
2,3, 1, 3, 0,23, 0.00,60.00,Tuesday
1074,22.6474981727704
1124,17.0524116417547
2,3, 1, 3, 0,24, 0.00,60.00,Tuesday
1074,22.5881782654723
1124,16.2699947217498
2,4, 1, 4, 0, 1, 0.00,60.00,Wednesday
1074,22.5189063776259
1124,16.3279134203868
2,4, 1, 4, 0, 2, 0.00,60.00,Wednesday
1074,22.4184550307299
1124,18.6837233512935
2,4, 1, 4, 0, 3, 0.00,60.00,Wednesday
1074,22.2701560693793
1124,17.5920120495964
2,4, 1, 4, 0, 4, 0.00,60.00,Wednesday
1074,22.064815623608
1124,14.7093488723848
2,4, 1, 4, 0, 5, 0.00,60.00,Wednesday
1074,21.8894355653629
1124,14.2739089410033
2,4, 1, 4, 0, 6, 0.00,60.00,Wednesday
1074,21.7582266713421
1124,13.3335131453234
2,4, 1, 4, 0, 7, 0.00,60.00,Wednesday
1074,21.6204133379816
1124,15.665861571648
2,4, 1, 4, 0, 8, 0.00,60.00,Wednesday
1074,21.4286595069318
1124,35.0061132335394
2,4, 1, 4, 0, 9, 0.00,60.00,Wednesday
1074,21.2996154445497
1124,48.8150324965914
2,4, 1, 4, 0,10, 0.00,60.00,Wednesday
1074,21.5215332118561
1124,51.4841052096813
2,4, 1, 4, 0,11, 0.00,60.00,Wednesday
1074,21.8499198345617
1124,46.4204246943114
2,4, 1, 4, 0,12, 0.00,60.00,Wednesday
1074,22.1601051329532
1124,40.9294585264955
2,4, 1, 4, 0,13, 0.00,60.00,Wednesday
1074,22.5811678305232
1124,38.6609612610568
2,4, 1, 4, 0,14, 0.00,60.00,Wednesday
1074,22.9670228694308
1124,36.4831993020972
2,4, 1, 4, 0,15, 0.00,60.00,Wednesday
1074,23.0821415072079
1124,35.1078343638236
2,4, 1, 4, 0,16, 0.00,60.00,Wednesday
1074,22.9335070144284
1124,32.6789801565427
2,4, 1, 4, 0,17, 0.00,60.00,Wednesday
1074,22.7170421772745
1124,29.2192682660271
2,4, 1, 4, 0,18, 0.00,60.00,Wednesday
1074,22.6270628463169
1124,31.1214000583219
2,4, 1, 4, 0,19, 0.00,60.00,Wednesday
1074,22.3837839625792
1124,40.1432896079076
2,4, 1, 4, 0,20, 0.00,60.00,Wednesday
1074,22.1913751114309
1124,44.1302651837991
2,4, 1, 4, 0,21, 0.00,60.00,Wednesday
1074,22.1580698859158
1124,33.7377363849097
2,4, 1, 4, 0,22, 0.00,60.00,Wednesday
1074,22.1258335881393
1124,30.5222729898665
2,4, 1, 4, 0,23, 0.00,60.00,Wednesday
1074,21.9721923008335
1124,29.2763366363689
2,4, 1, 4, 0,24, 0.00,60.00,Wednesday
1074,21.7594734655122
1124,28.2466015827802
2,5, 1, 5, 0, 1, 0.00,60.00,Thursday
1074,21.5083187781015
1124,27.0628481613841
2,5, 1, 5, 0, 2, 0.00,60.00,Thursday
1074,21.221090600619
1124,26.7813872310817
2,5, 1, 5, 0, 3, 0.00,60.00,Thursday
1074,20.9077117322263
1124,25.1893948591573
2,5, 1, 5, 0, 4, 0.00,60.00,Thursday
1074,20.5839833431866
1124,23.8691354814395
2,5, 1, 5, 0, 5, 0.00,60.00,Thursday
1074,20.2558922474
1124,33.5283127415777
2,5, 1, 5, 0, 6, 0.00,60.00,Thursday
1074,20.0572692023812
1124,36.2246894014002
2,5, 1, 5, 0, 7, 0.00,60.00,Thursday
1074,20.0213584303094
1124,39.5283130064674
2,5, 1, 5, 0, 8, 0.00,60.00,Thursday
1074,20.0366263680933
1124,49.2528007866222
2,5, 1, 5, 0, 9, 0.00,60.00,Thursday
1074,20.0525270307133
1124,50.0182006448518
2,5, 1, 5, 0,10, 0.00,60.00,Thursday
1074,20.0736679482752
1124,50.9624855394389
2,5, 1, 5, 0,11, 0.00,60.00,Thursday
1074,20.1419195858696
1124,55.432407064736
2,5, 1, 5, 0,12, 0.00,60.00,Thursday
1074,20.5979305377415
1124,54.7692693194345
2,5, 1, 5, 0,13, 0.00,60.00,Thursday
1074,21.0285661563145
1124,54.3771253338752
2,5, 1, 5, 0,14, 0.00,60.00,Thursday
1074,21.1913055222277
1124,54.5487594311528
2,5, 1, 5, 0,15, 0.00,60.00,Thursday
1074,21.2774648358629
1124,54.2510421447397
2,5, 1, 5, 0,16, 0.00,60.00,Thursday
1074,21.3661482611453
1124,54.4378501523744
2,5, 1, 5, 0,17, 0.00,60.00,Thursday
1074,21.4362505718862
1124,53.316603535027
2,5, 1, 5, 0,18, 0.00,60.00,Thursday
1074,21.5105558625118
1124,54.5945588790419
2,5, 1, 5, 0,19, 0.00,60.00,Thursday
1074,21.5603188293211
1124,54.5683846800372
2,5, 1, 5, 0,20, 0.00,60.00,Thursday
1074,21.6030391881299
1124,54.6051681578762
2,5, 1, 5, 0,21, 0.00,60.00,Thursday
1074,21.6359869883904
1124,43.874855821795
2,5, 1, 5, 0,22, 0.00,60.00,Thursday
1074,21.6687797028204
1124,38.3600297785335
2,5, 1, 5, 0,23, 0.00,60.00,Thursday
1074,21.6518563754995
1124,39.5758292391105
2,5, 1, 5, 0,24, 0.00,60.00,Thursday
1074,21.5932791751338
1124,37.9925943774728
2,6, 1, 6, 0, 1, 0.00,60.00,Friday
1074,21.4480411313826
1124,36.3154354504803
2,6, 1, 6, 0, 2, 0.00,60.00,Friday
1074,21.2319903713186
1124,34.7739744786109
2,6, 1, 6, 0, 3, 0.00,60.00,Friday
1074,20.9706343680832
1124,33.1898028149173
2,6, 1, 6, 0, 4, 0.00,60.00,Friday
1074,20.6802883085174
1124,32.2573196186142
2,6, 1, 6, 0, 5, 0.00,60.00,Friday
1074,20.3540949287358
1124,39.2625989928008
2,6, 1, 6, 0, 6, 0.00,60.00,Friday
1074,20.1033624329493
1124,37.8992662938459
2,6, 1, 6, 0, 7, 0.00,60.00,Friday
1074,19.9559383189982
1124,39.6553544395764
2,6, 1, 6, 0, 8, 0.00,60.00,Friday
1074,19.865906986394
1124,50.525077362413
2,6, 1, 6, 0, 9, 0.00,60.00,Friday
1074,19.770818421843
1124,53.5837336780751
2,6, 1, 6, 0,10, 0.00,60.00,Friday
1074,19.70908259447
1124,56.7254853176213
2,6, 1, 6, 0,11, 0.00,60.00,Friday
1074,19.7982518002211
1124,56.0316737020773
2,6, 1, 6, 0,12, 0.00,60.00,Friday
1074,19.9377478678752
1124,55.2866605312442
2,6, 1, 6, 0,13, 0.00,60.00,Friday
1074,20.149341154802
1124,53.5014165295194
2,6, 1, 6, 0,14, 0.00,60.00,Friday
1074,20.4819679167868
1124,53.3885459489098
2,6, 1, 6, 0,15, 0.00,60.00,Friday
1074,21.0353539324907
1124,52.7664552671585
2,6, 1, 6, 0,16, 0.00,60.00,Friday
1074,21.4131913767292
1124,52.9828104043997
2,6, 1, 6, 0,17, 0.00,60.00,Friday
1074,21.5674258496974
1124,54.441217421957
2,6, 1, 6, 0,18, 0.00,60.00,Friday
1074,21.7304204839654
1124,53.9760411389734
2,6, 1, 6, 0,19, 0.00,60.00,Friday
1074,21.7842633803474
1124,53.1217277398884
2,6, 1, 6, 0,20, 0.00,60.00,Friday
1074,21.6957577688398
1124,54.0368510771196
2,6, 1, 6, 0,21, 0.00,60.00,Friday
1074,21.6228376921155
1124,41.7219687699667
2,6, 1, 6, 0,22, 0.00,60.00,Friday
1074,21.5540350325874
1124,39.4574596433759
2,6, 1, 6, 0,23, 0.00,60.00,Friday
1074,21.3815187458523
1124,36.9072135820142
2,6, 1, 6, 0,24, 0.00,60.00,Friday
1074,21.1672215213875
1124,35.6551197688028
2,7, 1, 7, 0, 1, 0.00,60.00,Saturday
1074,20.9052948824384
1124,34.7134369177682
2,7, 1, 7, 0, 2, 0.00,60.00,Saturday
1074,20.5946057481289
1124,33.2529658994515
2,7, 1, 7, 0, 3, 0.00,60.00,Saturday
1074,20.2613018332185
1124,40.4673103324441
2,7, 1, 7, 0, 4, 0.00,60.00,Saturday
1074,20.0058852332366
1124,39.292100888679
2,7, 1, 7, 0, 5, 0.00,60.00,Saturday
1074,19.8624785193228
1124,48.7713350473643
2,7, 1, 7, 0, 6, 0.00,60.00,Saturday
1074,19.8978173553576
1124,41.0127287843536
2,7, 1, 7, 0, 7, 0.00,60.00,Saturday
1074,19.823920572315
1124,44.4729081861001
2,7, 1, 7, 0, 8, 0.00,60.00,Saturday
1074,19.7672667438965
1124,46.8384414341724
2,7, 1, 7, 0, 9, 0.00,60.00,Saturday
1074,19.761892368854
1124,57.1686958583542
2,7, 1, 7, 0,10, 0.00,60.00,Saturday
1074,19.7620649230052
1124,57.0711863089762
2,7, 1, 7, 0,11, 0.00,60.00,Saturday
1074,19.7714001248068
1124,56.6277997192066
2,7, 1, 7, 0,12, 0.00,60.00,Saturday
1074,19.9757107763189
1124,55.6704023104395
2,7, 1, 7, 0,13, 0.00,60.00,Saturday
1074,20.3407696228164
1124,55.5200200457931
2,7, 1, 7, 0,14, 0.00,60.00,Saturday
1074,20.7559178581346
1124,54.6442241697907
2,7, 1, 7, 0,15, 0.00,60.00,Saturday
1074,21.0433856820094
1124,55.4420184581926
2,7, 1, 7, 0,16, 0.00,60.00,Saturday
1074,21.2240819512954
1124,56.0429237878066
2,7, 1, 7, 0,17, 0.00,60.00,Saturday
1074,21.3333287516679
1124,53.6428384582042
2,7, 1, 7, 0,18, 0.00,60.00,Saturday
1074,21.3826514705435
1124,56.0309262290914
2,7, 1, 7, 0,19, 0.00,60.00,Saturday
1074,21.3960920835995
1124,56.4490204343428
2,7, 1, 7, 0,20, 0.00,60.00,Saturday
1074,21.4008988056432
1124,43.5362247598445
2,7, 1, 7, 0,21, 0.00,60.00,Saturday
1074,21.3443296695728
1124,40.9885065860646
2,7, 1, 7, 0,22, 0.00,60.00,Saturday
1074,21.1426241387793
1124,38.9786111894931
2,7, 1, 7, 0,23, 0.00,60.00,Saturday
1074,20.8785774261515
1124,36.2919028483592
2,7, 1, 7, 0,24, 0.00,60.00,Saturday
1074,20.5807214640531
1124,34.7696144590831
2,8, 1, 8, 0, 1, 0.00,60.00,Sunday
1074,20.2570237455284
1124,40.305346290929
2,8, 1, 8, 0, 2, 0.00,60.00,Sunday
1074,20.0060086965664
1124,46.2964540426273
2,8, 1, 8, 0, 3, 0.00,60.00,Sunday
1074,19.9271383991667
1124,41.7872861048833
2,8, 1, 8, 0, 4, 0.00,60.00,Sunday
1074,19.8054944767897
1124,50.6822873904985
2,8, 1, 8, 0, 5, 0.00,60.00,Sunday
1074,19.7960189516452
1124,43.8767208368849
2,8, 1, 8, 0, 6, 0.00,60.00,Sunday
1074,19.7073542266163
1124,46.5058689405748
2,8, 1, 8, 0, 7, 0.00,60.00,Sunday
1074,19.6787406689881
1124,47.8773744840135
2,8, 1, 8, 0, 8, 0.00,60.00,Sunday
1074,19.6565657156022
1124,47.6270049749306
2,8, 1, 8, 0, 9, 0.00,60.00,Sunday
1074,19.6312139061643
1124,58.4507573096774
2,8, 1, 8, 0,10, 0.00,60.00,Sunday
1074,19.5857387959645
1124,57.2777862868045
2,8, 1, 8, 0,11, 0.00,60.00,Sunday
1074,19.7821467626733
1124,57.0836341442256
2,8, 1, 8, 0,12, 0.00,60.00,Sunday
1074,20.0339865227988
1124,56.0477296869895
2,8, 1, 8, 0,13, 0.00,60.00,Sunday
1074,20.2941353549618
1124,55.1902143686916
2,8, 1, 8, 0,14, 0.00,60.00,Sunday
1074,20.4985356337698
1124,56.3271488940332
2,8, 1, 8, 0,15, 0.00,60.00,Sunday
1074,20.6497882555353
1124,56.5860696641296
2,8, 1, 8, 0,16, 0.00,60.00,Sunday
1074,20.7915523319737
1124,54.9506636937456
2,8, 1, 8, 0,17, 0.00,60.00,Sunday
1074,20.887289646757
1124,56.286227280741
2,8, 1, 8, 0,18, 0.00,60.00,Sunday
1074,21.0717653739913
1124,56.2711561013799
2,8, 1, 8, 0,19, 0.00,60.00,Sunday
1074,21.1999216051626
1124,56.2440497993737
2,8, 1, 8, 0,20, 0.00,60.00,Sunday
1074,21.2208724105696
1124,44.7776517751735
2,8, 1, 8, 0,21, 0.00,60.00,Sunday
1074,21.1956706728089
1124,42.9998320770189
2,8, 1, 8, 0,22, 0.00,60.00,Sunday
1074,21.1295658950319
1124,39.8692662621802
2,8, 1, 8, 0,23, 0.00,60.00,Sunday
1074,20.9655653742038
1124,37.6391405888505
2,8, 1, 8, 0,24, 0.00,60.00,Sunday
1074,20.7400666854523
1124,35.4872646224898
2,9, 1, 9, 0, 1, 0.00,60.00,Monday
1074,20.4689468384024
1124,41.1754112610567
2,9, 1, 9, 0, 2, 0.00,60.00,Monday
1074,20.2266652545789
1124,38.1951897790074
2,9, 1, 9, 0, 3, 0.00,60.00,Monday
1074,20.042078415055
1124,48.0584759677165
2,9, 1, 9, 0, 4, 0.00,60.00,Monday
1074,20.0177789680737
1124,40.1174725193165
2,9, 1, 9, 0, 5, 0.00,60.00,Monday
1074,19.8885476133346
1124,43.5926528341601
2,9, 1, 9, 0, 6, 0.00,60.00,Monday
1074,19.7990413918492
1124,46.9036918864645
2,9, 1, 9, 0, 7, 0.00,60.00,Monday
1074,19.7724100363819
1124,47.0649314947303
2,9, 1, 9, 0, 8, 0.00,60.00,Monday
1074,19.7635014909567
1124,55.5872935219647
2,9, 1, 9, 0, 9, 0.00,60.00,Monday
1074,19.7549930128277
1124,55.1951869680546
2,9, 1, 9, 0,10, 0.00,60.00,Monday
1074,19.7538883681335
1124,55.6673198691666
2,9, 1, 9, 0,11, 0.00,60.00,Monday
1074,19.762037838887
1124,56.3935687773901
2,9, 1, 9, 0,12, 0.00,60.00,Monday
1074,19.855311333666
1124,56.5821874607975
2,9, 1, 9, 0,13, 0.00,60.00,Monday
1074,20.0032810691984
1124,57.0126971297549
2,9, 1, 9, 0,14, 0.00,60.00,Monday
1074,20.2247282773192
1124,55.3773473780234
2,9, 1, 9, 0,15, 0.00,60.00,Monday
1074,20.5719650775933
1124,53.5125418370577
2,9, 1, 9, 0,16, 0.00,60.00,Monday
1074,21.0691363828343
1124,52.845748049955
2,9, 1, 9, 0,17, 0.00,60.00,Monday
1074,21.5335107235655
1124,52.4565556015904
2,9, 1, 9, 0,18, 0.00,60.00,Monday
1074,21.8482644266201
1124,49.0483795023649
2,9, 1, 9, 0,19, 0.00,60.00,Monday
1074,22.0055949592967
1124,46.4646946269827
2,9, 1, 9, 0,20, 0.00,60.00,Monday
1074,21.9443964281098
1124,45.3548079445201
2,9, 1, 9, 0,21, 0.00,60.00,Monday
1074,21.8307067383949
1124,35.6343361734537
2,9, 1, 9, 0,22, 0.00,60.00,Monday
1074,21.6948282858925
1124,32.749529976087
2,9, 1, 9, 0,23, 0.00,60.00,Monday
1074,21.5193567852461
1124,30.2062828972468
2,9, 1, 9, 0,24, 0.00,60.00,Monday
1074,21.3258967761117
1124,28.7534060485051
2,10, 1,10, 0, 1, 0.00,60.00,Tuesday
1074,21.1064925077251
1124,27.7704654964322
2,10, 1,10, 0, 2, 0.00,60.00,Tuesday
1074,20.8693692991597
1124,26.2934407600832
2,10, 1,10, 0, 3, 0.00,60.00,Tuesday
1074,20.6291519622261
1124,24.7524966807303
2,10, 1,10, 0, 4, 0.00,60.00,Tuesday
1074,20.3963247747116
1124,34.1812384240665
2,10, 1,10, 0, 5, 0.00,60.00,Tuesday
1074,20.288934095797
1124,34.6497631189405
2,10, 1,10, 0, 6, 0.00,60.00,Tuesday
1074,20.3057510044503
1124,36.5801750677162
2,10, 1,10, 0, 7, 0.00,60.00,Tuesday
1074,20.3565933017449
1124,37.2641769114139
2,10, 1,10, 0, 8, 0.00,60.00,Tuesday
1074,20.3757356599321
1124,46.6768754468119
2,10, 1,10, 0, 9, 0.00,60.00,Tuesday
1074,20.3978428293719
1124,54.3789036080598
2,10, 1,10, 0,10, 0.00,60.00,Tuesday
1074,20.6284398750783
1124,52.6509423601126
2,10, 1,10, 0,11, 0.00,60.00,Tuesday
1074,20.9281730046854
1124,51.6098098218722
2,10, 1,10, 0,12, 0.00,60.00,Tuesday
1074,21.2448965132234
1124,51.4831601281738
2,10, 1,10, 0,13, 0.00,60.00,Tuesday
1074,21.5657625808572
1124,51.3068897780512
2,10, 1,10, 0,14, 0.00,60.00,Tuesday
1074,21.8652304432743
1124,47.1022784092111
2,10, 1,10, 0,15, 0.00,60.00,Tuesday
1074,22.1154993204938
1124,43.6284551950155
2,10, 1,10, 0,16, 0.00,60.00,Tuesday
1074,22.2485861421038
1124,41.2807429740612
2,10, 1,10, 0,17, 0.00,60.00,Tuesday
1074,22.3352421626735
1124,37.8916875613266
2,10, 1,10, 0,18, 0.00,60.00,Tuesday
1074,22.4217324731679
1124,30.1420463767527
2,10, 1,10, 0,19, 0.00,60.00,Tuesday
1074,22.4148568749716
1124,28.5488499154473
2,10, 1,10, 0,20, 0.00,60.00,Tuesday
1074,22.3957638860139
1124,27.9803275843602
2,10, 1,10, 0,21, 0.00,60.00,Tuesday
1074,22.3722042062087
1124,22.649499780001
2,10, 1,10, 0,22, 0.00,60.00,Tuesday
1074,22.3455762376017
1124,20.1800816721004
2,10, 1,10, 0,23, 0.00,60.00,Tuesday
1074,22.3056999885726
1124,18.6768756008838
2,10, 1,10, 0,24, 0.00,60.00,Tuesday
1074,22.2624608773754
1124,17.5514758498331
2,11, 1,11, 0, 1, 0.00,60.00,Wednesday
1074,22.2002195875502
1124,17.4275565207413
2,11, 1,11, 0, 2, 0.00,60.00,Wednesday
1074,22.134509516798
1124,16.9707879852741
2,11, 1,11, 0, 3, 0.00,60.00,Wednesday
1074,22.0782169273137
1124,16.1944352331707
2,11, 1,11, 0, 4, 0.00,60.00,Wednesday
1074,22.0082910180677
1124,15.6504815980588
2,11, 1,11, 0, 5, 0.00,60.00,Wednesday
1074,21.9290819782414
1124,15.42574357674
2,11, 1,11, 0, 6, 0.00,60.00,Wednesday
1074,21.8348518584851
1124,14.598945102125
2,11, 1,11, 0, 7, 0.00,60.00,Wednesday
1074,21.721077423428
1124,14.4467116058496
2,11, 1,11, 0, 8, 0.00,60.00,Wednesday
1074,21.591103451133
1124,17.9771080449129
2,11, 1,11, 0, 9, 0.00,60.00,Wednesday
1074,21.4490582318713
1124,27.802195341194
2,11, 1,11, 0,10, 0.00,60.00,Wednesday
1074,21.3890994197135
1124,46.6163570402891
2,11, 1,11, 0,11, 0.00,60.00,Wednesday
1074,21.6774794476447
1124,48.9774670114392
2,11, 1,11, 0,12, 0.00,60.00,Wednesday
1074,22.1924877729645
1124,42.0807270176317
2,11, 1,11, 0,13, 0.00,60.00,Wednesday
1074,22.9476113529561
1124,37.7900936659757
2,11, 1,11, 0,14, 0.00,60.00,Wednesday
1074,23.5120722257671
1124,0.0
2,11, 1,11, 0,15, 0.00,60.00,Wednesday
1074,23.0536140791376
1124,0.0
2,11, 1,11, 0,16, 0.00,60.00,Wednesday
1074,22.5637001948828
1124,0.0
2,11, 1,11, 0,17, 0.00,60.00,Wednesday
1074,22.3434430226885
1124,0.0
2,11, 1,11, 0,18, 0.00,60.00,Wednesday
1074,22.1624293016633
1124,0.0
2,11, 1,11, 0,19, 0.00,60.00,Wednesday
1074,21.9761209230348
1124,0.0
2,11, 1,11, 0,20, 0.00,60.00,Wednesday
1074,21.7558600698676
1124,0.0
2,11, 1,11, 0,21, 0.00,60.00,Wednesday
1074,21.5027331424719
1124,38.7060002080954
2,11, 1,11, 0,22, 0.00,60.00,Wednesday
1074,21.9491491775064
1124,29.6495331064682
2,11, 1,11, 0,23, 0.00,60.00,Wednesday
1074,22.4851192285184
1124,0.0
2,11, 1,11, 0,24, 0.00,60.00,Wednesday
1074,22.3121613628535
1124,0.0
2,12, 1,12, 0, 1, 0.00,60.00,Thursday
1074,21.9867945483415
1124,0.0
2,12, 1,12, 0, 2, 0.00,60.00,Thursday
1074,21.7934014324169
1124,0.0
2,12, 1,12, 0, 3, 0.00,60.00,Thursday
1074,21.6897999374999
1124,0.0
2,12, 1,12, 0, 4, 0.00,60.00,Thursday
1074,21.6123780548252
1124,0.0
2,12, 1,12, 0, 5, 0.00,60.00,Thursday
1074,21.5426478510449
1124,0.0
2,12, 1,12, 0, 6, 0.00,60.00,Thursday
1074,21.4804791649621
1124,0.0
2,12, 1,12, 0, 7, 0.00,60.00,Thursday
1074,21.422767710137
1124,0.0
2,12, 1,12, 0, 8, 0.00,60.00,Thursday
1074,21.3731393135715
1124,0.0
2,12, 1,12, 0, 9, 0.00,60.00,Thursday
1074,21.3261862948727
1124,0.0
2,12, 1,12, 0,10, 0.00,60.00,Thursday
1074,21.2879327056795
1124,0.0
2,12, 1,12, 0,11, 0.00,60.00,Thursday
1074,21.2574438410484
1124,0.0
2,12, 1,12, 0,12, 0.00,60.00,Thursday
1074,21.2427306985209
1124,0.0
2,12, 1,12, 0,13, 0.00,60.00,Thursday
1074,21.2318263088752
1124,0.0
2,12, 1,12, 0,14, 0.00,60.00,Thursday
1074,21.2876701247381
1124,0.0
2,12, 1,12, 0,15, 0.00,60.00,Thursday
1074,21.3409561997811
1124,0.0
2,12, 1,12, 0,16, 0.00,60.00,Thursday
1074,21.3661947489926
1124,0.0
2,12, 1,12, 0,17, 0.00,60.00,Thursday
1074,21.3938243473641
1124,0.0
2,12, 1,12, 0,18, 0.00,60.00,Thursday
1074,21.3939211738226
1124,0.0
2,12, 1,12, 0,19, 0.00,60.00,Thursday
1074,21.3256822951402
1124,0.0
2,12, 1,12, 0,20, 0.00,60.00,Thursday
1074,21.1995598455225
1124,0.0
2,12, 1,12, 0,21, 0.00,60.00,Thursday
1074,21.0904702056461
1124,0.0
2,12, 1,12, 0,22, 0.00,60.00,Thursday
1074,21.0058851806244
1124,0.0
2,12, 1,12, 0,23, 0.00,60.00,Thursday
1074,20.8581916597314
1124,34.696082155094
2,12, 1,12, 0,24, 0.00,60.00,Thursday
1074,21.2339251180746
1124,27.4229757719134
2,13, 1,13, 0, 1, 0.00,60.00,Friday
1074,21.5296365354648
1124,26.2775163251361
2,13, 1,13, 0, 2, 0.00,60.00,Friday
1074,21.6429701776632
1124,24.8437609718634
2,13, 1,13, 0, 3, 0.00,60.00,Friday
1074,21.6705686336545
1124,19.9866195869518
2,13, 1,13, 0, 4, 0.00,60.00,Friday
1074,21.6147966707944
1124,23.7903721552636
2,13, 1,13, 0, 5, 0.00,60.00,Friday
1074,21.5662914504359
1124,18.2580018096595
2,13, 1,13, 0, 6, 0.00,60.00,Friday
1074,21.4635014261502
1124,17.6902618807292
2,13, 1,13, 0, 7, 0.00,60.00,Friday
1074,21.3660740656948
1124,20.4406721993278
2,13, 1,13, 0, 8, 0.00,60.00,Friday
1074,21.2572452427018
1124,19.969539576112
2,13, 1,13, 0, 9, 0.00,60.00,Friday
1074,21.0936061716709
1124,29.6631846059599
2,13, 1,13, 0,10, 0.00,60.00,Friday
1074,21.0321665699194
1124,47.7342756251475
2,13, 1,13, 0,11, 0.00,60.00,Friday
1074,21.3019293397369
1124,49.3392497683287
2,13, 1,13, 0,12, 0.00,60.00,Friday
1074,22.0581510705188
1124,42.6148973815156
2,13, 1,13, 0,13, 0.00,60.00,Friday
1074,22.837428949174
1124,38.0619127472492
2,13, 1,13, 0,14, 0.00,60.00,Friday
1074,23.2838669951255
1124,34.8956044334422
2,13, 1,13, 0,15, 0.00,60.00,Friday
1074,23.6224151705801
1124,33.6846890203674
2,13, 1,13, 0,16, 0.00,60.00,Friday
1074,23.7664441747312
1124,30.3040613360565
2,13, 1,13, 0,17, 0.00,60.00,Friday
1074,23.8297501817991
1124,29.2882473924309
2,13, 1,13, 0,18, 0.00,60.00,Friday
1074,23.8193099240112
1124,28.8367412905031
2,13, 1,13, 0,19, 0.00,60.00,Friday
1074,23.6469463020593
1124,28.6185137874241
2,13, 1,13, 0,20, 0.00,60.00,Friday
1074,23.4015037081924
1124,27.64275575826
2,13, 1,13, 0,21, 0.00,60.00,Friday
1074,23.1775526464138
1124,21.9325072865159
2,13, 1,13, 0,22, 0.00,60.00,Friday
1074,22.9493529566293
1124,21.0659537018408
2,13, 1,13, 0,23, 0.00,60.00,Friday
1074,22.7057679900283
1124,20.4574749815986
2,13, 1,13, 0,24, 0.00,60.00,Friday
1074,22.4420027610582
1124,19.9154428124565
2,14, 1,14, 0, 1, 0.00,60.00,Saturday
1074,22.1692121446908
1124,18.9493537516581
2,14, 1,14, 0, 2, 0.00,60.00,Saturday
1074,21.898808455677
1124,18.2056269902404
2,14, 1,14, 0, 3, 0.00,60.00,Saturday
1074,21.6253676033108
1124,17.9778985065826
2,14, 1,14, 0, 4, 0.00,60.00,Saturday
1074,21.3386238457423
1124,17.3668078042071
2,14, 1,14, 0, 5, 0.00,60.00,Saturday
1074,21.0519627426718
1124,14.2559513496793
2,14, 1,14, 0, 6, 0.00,60.00,Saturday
1074,20.8183897857714
1124,14.0336548958586
2,14, 1,14, 0, 7, 0.00,60.00,Saturday
1074,20.6412383556212
1124,12.8230196300314
2,14, 1,14, 0, 8, 0.00,60.00,Saturday
1074,20.472563293822
1124,12.6202154778565
2,14, 1,14, 0, 9, 0.00,60.00,Saturday
1074,20.3027129753672
1124,26.9460906941262
2,14, 1,14, 0,10, 0.00,60.00,Saturday
1074,20.2343446045711
1124,50.3015866921636
2,14, 1,14, 0,11, 0.00,60.00,Saturday
1074,20.5031034607902
1124,53.474420341124
2,14, 1,14, 0,12, 0.00,60.00,Saturday
1074,20.9070391569509
1124,54.3302457713603
2,14, 1,14, 0,13, 0.00,60.00,Saturday
1074,21.349072357963
1124,54.3517877981906
2,14, 1,14, 0,14, 0.00,60.00,Saturday
1074,21.7941807712154
1124,48.5818680275744
2,14, 1,14, 0,15, 0.00,60.00,Saturday
1074,22.2753049674358
1124,44.3283395350579
2,14, 1,14, 0,16, 0.00,60.00,Saturday
1074,22.5852762240739
1124,35.5256076677987
2,14, 1,14, 0,17, 0.00,60.00,Saturday
1074,22.6424729395252
1124,37.1680346925382
2,14, 1,14, 0,18, 0.00,60.00,Saturday
1074,22.6200673849186
1124,36.9179280249383
2,14, 1,14, 0,19, 0.00,60.00,Saturday
1074,22.5804884485763
1124,36.5191954542456
2,14, 1,14, 0,20, 0.00,60.00,Saturday
1074,22.5435596539034
1124,29.8548527632186
2,14, 1,14, 0,21, 0.00,60.00,Saturday
1074,22.5082762837783
1124,27.5368853654829
2,14, 1,14, 0,22, 0.00,60.00,Saturday
1074,22.4634982862918
1124,25.4087760271282
2,14, 1,14, 0,23, 0.00,60.00,Saturday
1074,22.4028029767789
1124,24.1195151419569
2,14, 1,14, 0,24, 0.00,60.00,Saturday
1074,22.3260627143378
1124,23.1601284935842
2,15, 1,15, 0, 1, 0.00,60.00,Sunday
1074,22.2374564821442
1124,22.0800369514066
2,15, 1,15, 0, 2, 0.00,60.00,Sunday
1074,22.1363933629661
1124,21.5949064464088
2,15, 1,15, 0, 3, 0.00,60.00,Sunday
1074,22.025584082289
1124,20.9345135538106
2,15, 1,15, 0, 4, 0.00,60.00,Sunday
1074,21.8946297364653
1124,19.535173350053
2,15, 1,15, 0, 5, 0.00,60.00,Sunday
1074,21.7490420304552
1124,23.4289654923603
2,15, 1,15, 0, 6, 0.00,60.00,Sunday
1074,21.5670142100254
1124,21.2519798912243
2,15, 1,15, 0, 7, 0.00,60.00,Sunday
1074,21.3057722364186
1124,19.8958909882272
2,15, 1,15, 0, 8, 0.00,60.00,Sunday
1074,21.0413942533502
1124,19.2583373726345
2,15, 1,15, 0, 9, 0.00,60.00,Sunday
1074,20.7735131054683
1124,17.6459621101607
2,15, 1,15, 0,10, 0.00,60.00,Sunday
1074,20.5559077219435
1124,37.0477906316177
2,15, 1,15, 0,11, 0.00,60.00,Sunday
1074,20.6407383400575
1124,48.3484166962948
2,15, 1,15, 0,12, 0.00,60.00,Sunday
1074,21.1414895895971
1124,48.1681164699731
2,15, 1,15, 0,13, 0.00,60.00,Sunday
1074,22.3388391665833
1124,41.5811605681021
2,15, 1,15, 0,14, 0.00,60.00,Sunday
1074,23.2009880153998
1124,38.6198752211796
2,15, 1,15, 0,15, 0.00,60.00,Sunday
1074,23.3867497175877
1124,36.5487092689735
2,15, 1,15, 0,16, 0.00,60.00,Sunday
1074,23.4581322860981
1124,33.9945358564251
2,15, 1,15, 0,17, 0.00,60.00,Sunday
1074,23.4861129547689
1124,33.9531676435367
2,15, 1,15, 0,18, 0.00,60.00,Sunday
1074,23.4521260588308
1124,33.2426606669438
2,15, 1,15, 0,19, 0.00,60.00,Sunday
1074,23.3211762789436
1124,31.3749570820939
2,15, 1,15, 0,20, 0.00,60.00,Sunday
1074,23.1623600106634
1124,24.7973356927581
2,15, 1,15, 0,21, 0.00,60.00,Sunday
1074,22.9869354141796
1124,23.6134863974186
2,15, 1,15, 0,22, 0.00,60.00,Sunday
1074,22.778427546336
1124,22.2733318765112
2,15, 1,15, 0,23, 0.00,60.00,Sunday
1074,22.5439727868569
1124,22.7014420090433
2,15, 1,15, 0,24, 0.00,60.00,Sunday
1074,22.2845810165977
1124,21.6130826276199
2,16, 1,16, 0, 1, 0.00,60.00,Monday
1074,22.0031491910822
1124,20.2141203537211
2,16, 1,16, 0, 2, 0.00,60.00,Monday
1074,21.7489144132985
1124,16.6980540188252
2,16, 1,16, 0, 3, 0.00,60.00,Monday
1074,21.5386552845677
1124,16.1384777210791
2,16, 1,16, 0, 4, 0.00,60.00,Monday
1074,21.3747351354606
1124,15.6798370571297
2,16, 1,16, 0, 5, 0.00,60.00,Monday
1074,21.199793280579
1124,18.0144924114671
2,16, 1,16, 0, 6, 0.00,60.00,Monday
1074,20.9629572688943
1124,17.1399253489575
2,16, 1,16, 0, 7, 0.00,60.00,Monday
1074,20.6417158463992
1124,16.6819325126683
2,16, 1,16, 0, 8, 0.00,60.00,Monday
1074,20.3265256835944
1124,36.9039247800941
2,16, 1,16, 0, 9, 0.00,60.00,Monday
1074,20.1949961663378
1124,51.6611800453134